     8448
Lattice="     49.70      0.00      0.00      0.00     49.70      0.00      0.00      0.00     49.70" pbc="T T T" config_type=md Properties=species:S:1:pos:R:3:charge:R:1:forces:R:3:id:I:1
 Si  1.064509708610E+01  1.760813209173E+01  1.603832056210E+01  0.000000000000E+00  3.739016039177E-01  9.301436634540E+00  1.841177025353E+01  8.472188966760E+00  1.222042427179E+01  6.184733476681E-01        1
 Si  1.244088794142E+01  2.006858003816E+01  1.694790518277E+01  0.000000000000E+00  5.199008515649E+00  6.501566064467E+01  2.285840290664E+01  5.490569088126E+01  1.677958579627E+01  8.386597404193E+00        2
 Si  1.091247548153E+01  2.248983655226E+01  1.790171658079E+01  0.000000000000E+00 -1.574753687055E+01  5.999759116264E+01  1.360286734453E+01  4.775756684706E+01  8.291995670126E+00 -3.245455450678E+01        3
 O   1.124813875721E+01  1.923364210916E+01  1.648329374565E+01  0.000000000000E+00 -3.132894225663E+01 -3.037328898251E+01 -9.102836548132E+00 -2.603000729030E+01 -6.211742031511E+00 -5.357061074981E+01        4
 O   9.007655671097E+00  1.761286080373E+01  1.601347930091E+01  0.000000000000E+00  9.029687822207E+00  1.169278912113E+01 -2.727925076062E+00  1.063099508068E+01 -1.534470387102E+00  1.765594073761E+01        5
 O   1.125050823475E+01  1.762610299919E+01  1.454095616508E+01  0.000000000000E+00 -1.148689126485E+00 -2.277204354792E+01  3.946595412478E+00 -1.878618813442E+01  3.053527132827E+00 -1.799644285842E+00        6
 O   1.121220268475E+01  1.690796307814E+01  1.748131701297E+01  0.000000000000E+00 -1.856735104366E+00 -1.038083766675E+01 -1.087222431509E+00 -1.073285488465E+01 -6.973249358984E-01 -2.799950150135E+00        7
 O   1.266140565947E+01  2.124439655601E+01  1.581325295282E+01  0.000000000000E+00  3.658137146170E+00 -1.934169277893E+01  9.682027621859E+00 -1.439697661652E+01  7.752236664543E+00  6.137937467580E+00        8
 O   1.383909588243E+01  1.943428725653E+01  1.754900801753E+01  0.000000000000E+00 -1.097058527850E+01  2.341600254732E+01  9.104597258689E+00  2.114446550147E+01  7.179858503001E+00 -1.540602850693E+01        9
 O   1.181832215513E+01  2.126919364685E+01  1.820452614800E+01  0.000000000000E+00  2.689963080746E+01 -7.319917174322E+01 -8.692605791592E+00 -6.265193961447E+01 -5.643212834952E+00  4.841071762664E+01       11
 O   1.919252367955E+01  1.777925672948E+01  2.048520141829E+01  0.000000000000E+00  3.415311433760E+01 -3.129304311361E+01  6.473115274958E+01 -3.605574186408E+01  6.064642258493E+01  3.163820444138E+01       13
 Ca  2.659340501122E+00  1.662868156559E+01  1.750559015712E+01  0.000000000000E+00 -4.770525779457E+00 -1.207551686328E+01  5.993177312589E-01 -1.271231566437E+01  8.292224285777E-01 -2.939583642503E+00       14
 Ca  2.130548886272E+01  1.396946651881E+01  1.870310086583E+01  0.000000000000E+00 -1.428594465921E+01 -4.199134698374E+00  7.722663698773E+00 -5.622035723920E+00  8.797211040301E+00 -9.366930132061E+00       15
 O   6.957993217651E+00  3.655231680816E+00  1.535092736969E+01  0.000000000000E+00 -2.242932839650E+01 -1.777578150898E+00  2.768968268523E+01 -1.266974198654E+01  1.255068307490E+01 -1.124112541547E+01       16
 O   9.701992871350E+00  1.585922135579E+01  1.978236246614E+01  0.000000000000E+00  1.477566096882E+00  1.550362848193E+00  8.438297020689E+00  1.933880556235E+00  4.138448968428E+00  2.415281902284E+00       18
 Si  2.036718245312E+01  1.975895265914E+01  1.813582630215E+01  0.000000000000E+00  3.205561678953E+01 -1.153758172330E+01 -5.428047678878E+00 -1.058981119547E+01 -6.095891943276E+00  3.109833262710E+01       19
 Si  1.810916084648E+01  2.138674929925E+01  1.839762146334E+01  0.000000000000E+00  1.322675381353E+01  5.515695659228E+01 -4.335462997732E-01  4.744792180690E+01 -4.267486257739E-01  1.562067233546E+01       20
 O   1.883665982566E+01  1.999389980308E+01  1.875700672353E+01  0.000000000000E+00  7.180509195051E+00 -3.197815841002E+01  1.351990142434E+01 -2.999987687298E+01  1.357731474752E+01  7.621647505963E+00       22
 O   2.143352588116E+01  2.103529411459E+01  1.812143836459E+01  0.000000000000E+00 -1.750227710055E+01 -2.238424097540E+01  3.763460534598E+00 -1.928352610446E+01  4.451314909342E+00 -1.717708735962E+01       23
 O   2.036988925829E+01  1.891564381559E+01  1.671476736086E+01  0.000000000000E+00 -1.356298810958E+01  2.615903010469E+01 -9.999241476895E-01  2.311536984140E+01 -1.218583765803E+00 -1.259470038854E+01       24
 O   2.125769937710E+01  1.859829862806E+01  1.902088366239E+01  0.000000000000E+00 -1.460723785414E+01 -1.144226863929E+01  1.635153812217E+01 -1.170225647916E+01  1.827444444349E+01 -1.277982941254E+01       25
 O   1.833751193046E+01  2.252036736775E+01  1.964436054379E+01  0.000000000000E+00  3.065780876576E+01 -3.401579933153E+01  2.201011731149E+00 -2.967174626159E+01  2.054588582258E+00  3.765097024686E+01       26
 O   2.169641018845E+01  1.729911132433E+01  2.120323022442E+01  0.000000000000E+00  7.266800868934E+00 -1.827501359088E+01  1.319032322106E+01 -2.239937724298E+01  1.349712567818E+01  5.794009060095E+00       27
 O   1.930313338414E+01  2.169500305603E+01  1.713852830935E+01  0.000000000000E+00 -3.300158465721E+01  5.475227639832E+01 -1.182228103506E+01  4.325297565669E+01 -1.331544130309E+01 -3.709084249401E+01       29
 Ca  4.590697683662E+00  1.042219408678E+01  1.504199101145E+01  0.000000000000E+00  4.279057161219E+00  5.012591807447E+00  9.898438679195E+00  7.234499788035E+00  3.020925852293E+00  9.714681147788E+00       32
 Si  1.342698700558E+01  1.970959563757E+01  1.228317383473E+01  0.000000000000E+00 -1.332109308298E+00  5.366363323019E+01  3.730682131931E+00  3.344359507370E+01  4.078084474045E+00 -1.955415299104E+00       37
 Si  1.207722852288E+01  2.187631088351E+01  1.440619194037E+01  0.000000000000E+00  2.572667070382E+01  2.123321029126E+01 -2.156634343311E+00  1.398269135024E+01 -1.807984088528E+00  4.660048000649E+01       38
 O   1.282900485405E+01  2.099762493290E+01  1.330456994352E+01  0.000000000000E+00  5.762361197860E+00  2.000140071083E+01 -5.953866044752E+00  1.267333975037E+01 -5.741048129534E+00  9.431432955015E+00       40
 O   1.442319502890E+01  1.905822092390E+01  1.351145876488E+01  0.000000000000E+00 -2.842406075456E+01 -1.883221516692E+01  1.147971974719E+01 -1.335123040578E+01  1.225435681462E+01 -3.755839315280E+01       41
 O   1.434022046089E+01  2.048125617509E+01  1.104181691476E+01  0.000000000000E+00 -7.916161219691E+00 -3.639084271992E+01  2.074525003498E+01 -1.961896376140E+01  2.694225609014E+01 -1.130616689653E+01       42
 O   1.193725133785E+01  1.915593959295E+01  1.189600445008E+01  0.000000000000E+00  1.678058089215E+01 -2.975795170384E+01 -2.213809098005E+00 -1.847994582446E+01 -2.221485014383E+00  2.692812480923E+01       43
 O   1.279940836802E+01  2.344814760039E+01  1.471648195373E+01  0.000000000000E+00 -2.806050162847E+01  7.917515062724E+00  4.778878983907E+00  4.969175796941E+00  4.156348225663E+00 -5.140603104509E+01       44
 O   1.052286067639E+01  2.202973368313E+01  1.399187875834E+01  0.000000000000E+00 -1.524231967652E+01  6.204579484154E+00  2.515190744754E+01  3.940752309468E+00  1.891597421527E+01 -3.190997709780E+01       46
 O   7.860364737403E+00  2.159588754795E+01  1.520117271286E+01  0.000000000000E+00  1.213061208941E+01  9.636177892072E+00 -1.541490258796E+01  6.782828633646E+00 -7.970882182690E+00  3.332813976482E+01       47
 O   1.836754903629E+01  1.605186372990E+01  9.369399472650E+00  0.000000000000E+00 -5.374133113643E+00 -2.046483423931E-01 -6.575798507935E+00 -1.194523018361E-01 -1.289103980462E+01 -4.696590287364E+00       48
 Ca  6.566853065040E+00  2.120094378727E+01  1.325632033383E+01  0.000000000000E+00 -4.926176456673E-01 -3.690064743903E+00 -5.932905573902E+00 -2.307287863625E+00 -2.939014611251E+00 -1.590405466815E+00       49
 Si  2.062410846811E+01  2.074578141613E+01  2.280075120552E+01  0.000000000000E+00  6.562010325093E+00 -2.967918168738E+01  5.573583225096E+01 -3.261904789527E+01  5.041508674617E+01  6.600723229577E+00       51
 Si  1.981738476751E+01  2.272235947249E+01  2.082523341527E+01  0.000000000000E+00 -1.566381333874E+02 -7.723604826767E+01  1.866201361250E+01 -7.078748732915E+01  1.775885517923E+01 -1.795992768815E+02       52
 O   1.943770834306E+01  2.145600654997E+01  2.199487677548E+01  0.000000000000E+00 -3.889190099754E+00  4.370122576181E+01 -4.318835584298E+01  4.479878738525E+01 -3.816719108096E+01 -4.293020904607E+00       54
 O   1.978344901929E+01  1.924611455193E+01  2.326519012064E+01  0.000000000000E+00  1.378243275574E+01  7.586998979582E+00 -1.135138622483E+01  9.171356287463E+00 -9.652599850361E+00  1.340809074104E+01       55
 O   2.209089312517E+01  2.032791499082E+01  2.232531390294E+01  0.000000000000E+00  1.053972573931E+01 -1.042052017971E+01 -2.629336744932E+01 -1.144442920727E+01 -2.601728122386E+01  9.698596052290E+00       56
 O   2.099773810381E+01  2.156708525860E+01  2.417030864019E+01  0.000000000000E+00 -9.974971912588E+00  8.178201905585E+00 -1.997580007998E+00  9.165339767039E+00 -1.735379654176E+00 -1.024544018157E+01       57
 O   1.669289941426E+01  2.152457046312E+01  1.770377377217E+01  0.000000000000E+00 -3.343520163841E+00 -9.496261332287E+00  7.069442161428E+00 -7.810593135702E+00  6.665781456220E+00 -4.311284311698E+00       58
 O   1.429270970966E+01  1.315116347196E+01  1.196125741195E+01  0.000000000000E+00  1.705430476060E+01  2.868152419338E+01  1.317000401725E+01  2.608644433442E+01  1.573706156558E+01  1.569219233884E+01       59
 H   3.404287697495E+00  8.285524292898E+00  1.424035934929E+01  0.000000000000E+00  3.229887994805E+00 -1.245727550413E+01  1.454162064608E+01 -2.141036263016E+01  3.063015380238E+00  8.400485997959E+00       70
 H   1.378465444027E+01  1.991303926805E+01  1.842143531708E+01  0.000000000000E+00  1.034518743904E+01 -1.587684564110E+01 -3.374505645668E+00 -1.468757637042E+01 -2.525123229087E+00  1.494445323977E+01       73
 H   1.671078768204E+01  1.234629974342E+01  1.555318707770E+01  0.000000000000E+00 -1.045428836640E+01  8.484165366675E-01 -1.777796596627E+01  1.068788332442E+00 -1.910115355758E+01 -7.723859594870E+00       83
 Si  1.762427354603E+00  2.059370696549E+01  2.130037480602E+01  0.000000000000E+00  1.114214711576E+00  5.319381852483E+01  8.165290085794E+00  5.501915093969E+01  1.122688380973E+00 -1.091376428253E+00       89
 Si  2.523446569645E+00  2.054136832993E+01  1.824959195638E+01  0.000000000000E+00 -9.948174210311E+00 -7.536431650351E+00  2.212915671112E+01 -6.695600809886E+00  4.588255301332E-01 -6.910014311783E+01       90
 O   1.337352065529E+00  2.040243675774E+01  1.966638263107E+01  0.000000000000E+00  9.920703306481E+00  1.736000051382E+01 -2.457102279571E+01  1.673370767591E+01  1.537919233534E+00  3.090813679296E+01       92
 O   1.414338754991E+00  1.919169432281E+01  2.187510226325E+01  0.000000000000E+00  3.263869079636E+00 -2.399162886880E+01  3.555292980661E+01 -2.734616997015E+01  6.208859832050E-01 -6.466321184819E+00       95
 O   1.778791130861E+00  1.950368698217E+01  1.714808426780E+01  0.000000000000E+00  9.741296994241E+00  1.782988600256E+00 -1.158707951160E+01  1.567644045645E+00  3.163664398243E+00  1.423106730385E+01       96
 O   3.962029398485E+00  2.021746220310E+01  1.875596090725E+01  0.000000000000E+00  3.621899871156E+00 -4.644911548130E+00 -3.583658835577E+00 -4.309135268274E+00 -7.570448286228E-01  1.847091498652E+01       97
 O   1.176883247691E+01  1.459858789259E+01  2.072458753358E+01  0.000000000000E+00 -7.242006400268E-01  1.477688728672E+01  2.366678143437E+01  2.097770663166E+01  1.343961058417E+01 -8.983309700468E-01       98
 O   3.814665273839E+00  1.237799495719E+01  2.003323351783E+01  0.000000000000E+00 -5.164595359023E-01 -1.701382970564E+00  1.366824676576E+01 -2.753612557643E+00  2.619957006685E+00 -1.243600192256E+00      101
 Ca  2.153303758308E+01  2.374138741541E+01  1.855663195205E+01  0.000000000000E+00  1.380719068676E+01  1.101705811111E+01 -3.998664750607E+01  8.611101322142E+00 -4.640033739927E+01  1.522320582724E+01      102
 O   1.595324397220E+01  3.893265063591E+00  1.142733547316E+01  0.000000000000E+00  4.927969973783E+01 -5.165108326364E+00  2.405777808199E+01 -1.516039227653E+01  3.358609748288E+01  1.202632728916E+01      105
 Si  5.501421851112E+00  1.572444156342E+01  1.973571506000E+01  0.000000000000E+00 -4.960531523816E+00  2.470010380551E+01 -2.155077047770E+01  3.100105073314E+01 -6.007376943469E+00 -1.417844153398E+01      107
 Si  8.457848908309E+00  1.673327380950E+01  2.036224982288E+01  0.000000000000E+00  2.832418084520E+00  4.014110797879E+00 -3.452177967233E+00  4.884658424507E+00 -1.433927974827E+00  5.603744860551E+00      108
 Si  7.656892982506E+00  1.939739162329E+01  1.967702639663E+01  0.000000000000E+00  2.302008916325E+01  1.071980844014E+01 -1.154324163607E+01  1.087434629047E+01 -4.491805016521E+00  5.831734696080E+01      109
 O   6.997562020913E+00  1.645180372815E+01  1.971303465833E+01  0.000000000000E+00  4.221582489821E-01 -1.357064527084E+01 -5.674453865761E+00 -1.626074593282E+01 -2.014268404063E+00  9.925263447061E-01      110
 O   4.682086482346E+00  1.607860668739E+01  1.830804149169E+01  0.000000000000E+00  4.664709096188E+00 -4.852864397511E+00  1.804523494211E+01 -5.525755090015E+00  4.614876508312E+00  1.601893154932E+01      111
 O   4.570954504766E+00  1.668372568078E+01  2.070204954841E+01  0.000000000000E+00  5.027456667862E-01 -9.896445451380E+00  8.037790239988E+00 -1.228003312975E+01  1.774721552082E+00  1.834993278344E+00      112
 O   5.761600407095E+00  1.409969878088E+01  2.011253105592E+01  0.000000000000E+00  1.624270297947E+00  3.122988360977E+01 -7.009006352671E+00  4.454790231588E+01 -2.007857377205E+00  3.974888975568E+00      113
 O   8.251870670309E+00  1.644056141680E+01  2.194587318103E+01  0.000000000000E+00 -4.230934451036E+00 -3.217342246599E+00  1.885502569144E+01 -4.294706435735E+00  7.089680697945E+00 -8.429475021100E+00      114
 O   1.180448477004E+01  1.374747894291E+01  3.498018869012E+01  0.000000000000E+00  4.718949948240E+01  4.694393631615E+01 -1.241941879947E+01  1.194479189250E+02 -4.191082025593E+00  5.495679507398E+01      115
 O   8.847496527958E+00  1.832452760891E+01  2.029510445206E+01  0.000000000000E+00 -7.942193651750E+00  1.076638695650E+01  1.689061517706E+01  1.192417903025E+01  7.363335305178E+00 -1.644950595763E+01      117
 O   6.135655454444E+00  1.965525642036E+01  1.996218294978E+01  0.000000000000E+00 -4.000166184007E+00  3.785049649955E+00  1.981567571574E+01  3.844155068267E+00  6.090624411903E+00 -1.281432646511E+01      118
 O   6.377444602857E+00  9.503374305842E+00  2.240091824048E+01  0.000000000000E+00 -5.837676151408E+00  3.132689200789E+00 -4.211190230376E+00  7.384231368911E+00 -1.198907657177E+00 -8.699036212446E+00      119
 Ca  2.308343175275E+01  1.896474632678E+01  2.050419267212E+01  0.000000000000E+00 -8.698105740368E+00 -1.082006151493E+01  1.177483568751E+01 -1.169837034483E+01  1.325600184991E+01 -7.146137136646E+00      120
 Ca  3.540481776637E+00  1.209859202196E+01  1.770910063249E+01  0.000000000000E+00 -7.383280058726E+00 -4.937989680243E+00  4.833967718720E+01 -7.227895279952E+00  1.094902780337E+01 -1.545997761313E+01      121
 Si  7.345576324228E-01  1.705787487514E+01  1.427397909236E+01  0.000000000000E+00 -2.402104988076E+02  6.801828236832E+00 -3.367646384388E+01  5.691749690571E+00 -1.132571458248E+02 -3.000894716469E-01      125
 Si  2.357440822466E+00  1.924665309447E+01  1.550018779038E+01  0.000000000000E+00 -7.245600109041E+00 -4.869133111404E+01  1.474435009143E+01 -3.921329970082E+01  1.316649217366E+00  1.297509772424E+01      126
 Si  3.254801353455E+00  2.096771423915E+01  1.329457204777E+01  0.000000000000E+00  1.841775135710E+01 -2.575715895080E+01  2.047407845561E+01 -1.633131783044E+01  6.380041348675E+00  1.109098826943E+02      127
 O   1.252043843642E+00  1.859946962489E+01  1.448735390893E+01  0.000000000000E+00  3.529567653621E+01  2.576404174935E+01  2.346506544307E+01  2.006792658472E+01  1.286509406796E+01 -1.653058824306E+01      128
 O   1.856291277856E+00  1.682557003763E+01  1.306778976380E+01  0.000000000000E+00  3.264070684606E+01 -1.667209798312E+01 -2.084658142017E+00 -1.294859376994E+01 -5.142752490663E+00  1.032137801441E+01      129
 O   7.380315354014E-01  1.591190359111E+01  1.542654282235E+01  0.000000000000E+00  9.956095878881E+00 -7.433217827344E+00 -4.210764875163E+00 -7.206482396327E+00  1.642277462373E+01  2.246975226345E+00      131
 O   3.418023415852E+00  1.791884722610E+01  1.568113547513E+01  0.000000000000E+00 -2.776346013798E+00  4.349858445667E+01  6.528276311349E+00  3.806646639899E+01  9.926816467754E-01 -1.002194429767E+01      132
 O   2.054579368615E+00  4.277508348030E+00  8.996560242285E+00  0.000000000000E+00  8.123404856880E+00 -8.538210066545E+00 -5.030566512278E+00 -1.796524373438E+01  3.841915242413E-01 -9.473940429857E+00      133
 O   2.688247300501E+00  2.071559660429E+01  1.485536194872E+01  0.000000000000E+00  1.464244698981E+01  3.598000421455E+00 -4.647382973096E+00  2.580162163482E+00 -2.905079626922E+00  1.247907364306E+01      134
 O   2.323639616098E+00  2.032976780838E+01  1.221693166096E+01  0.000000000000E+00 -9.275164352363E+00  1.460965264726E+01 -2.989583326514E+01  8.779496630963E+00 -9.827937412372E+00 -6.305693836646E+01      135
 O   8.406110634720E+00  1.554413044889E+01  1.232360666048E+01  0.000000000000E+00 -3.822829637179E+00 -2.737051076470E+00 -5.875851150564E+00 -2.169972838749E+00 -4.008003193026E+00 -7.068972221081E+00      136
 Si  8.767405678923E+00  1.450967881169E+01  2.552297302542E+01  0.000000000000E+00  4.560969692602E+00 -2.813138397735E+01 -1.526649367306E+01 -4.948397299070E+01 -5.244198753534E+00  7.548208413421E+00      139
 Si  8.772281439249E+00  1.683564286893E+01  2.342148236399E+01  0.000000000000E+00  6.598550947617E+00  5.155393817703E+01  3.535019395123E+00  7.172103038821E+01  1.324006078919E+00  1.266384896288E+01      140
 O   8.620764896179E+00  1.549878125509E+01  2.427736223262E+01  0.000000000000E+00 -9.664114257882E+00  5.228563910072E+00  8.477788269688E+00  8.190046553468E+00  3.010418463599E+00 -1.737455953282E+01      142
 O   7.620715664995E+00  1.334668835262E+01  2.515994601168E+01  0.000000000000E+00  8.140144079619E+00  1.779517610086E+01  2.357700582582E+01  3.354582486208E+01  7.141257677863E+00  1.425639939240E+01      143
 O   8.265522575797E+00  1.843513302323E+01  2.424072732955E+01  0.000000000000E+00 -3.770137276807E-01 -3.802651870221E+01 -2.068416123757E+01 -5.000183454010E+01 -7.052816499532E+00 -8.408782575623E-01      148
 O   1.265837087810E+01  1.611174970171E+01  1.354028653383E+00  0.000000000000E+00  1.223183616368E+01  3.975724881385E+01  2.943141880127E+01 -2.787329850620E+00 -6.013377600409E+00  1.556885041206E+01      150
 Ca  4.023319397556E+00  1.165338942007E+01  7.361668668635E+00  0.000000000000E+00 -6.425071159896E-01  4.658741008624E+00 -1.346546243243E+00  2.943015673999E+00  3.112967311368E-01  2.832433156444E+00      151
 Ca  1.324598288990E+01  2.171996137041E+01  1.427435996674E+00  0.000000000000E+00 -6.809135159488E+00 -1.678665248394E+01 -3.815958572575E+01 -2.207989732666E+01 -1.330157753302E+00 -1.116520788674E+01      152
 H   7.360387622487E+00  1.776933120478E+01  1.597409810976E+01  0.000000000000E+00 -1.368481523133E+01 -1.867247228776E+01  7.459297432036E+00 -1.678599497296E+01  3.437021615491E+00 -3.303766415492E+01      155
 H   1.242652403974E+01  1.369837985844E+01  3.420011463047E+01  0.000000000000E+00 -2.244992096425E+01 -9.104718301325E+00  3.273664498834E+01 -2.273133120861E+01  1.189477609428E+01 -2.474767233191E+01      156
 H   1.414099015207E+01  1.300383174905E+01  1.105073142388E+01  0.000000000000E+00 -5.438123917872E+00 -1.072275169341E+01 -2.118896095916E+01 -9.112256400690E+00 -2.711430372913E+01 -5.000813075890E+00      159
 H   1.688211029759E+01  3.458010529752E+00  1.186198052968E+01  0.000000000000E+00 -5.019030545148E+01  5.039441009684E+00 -1.846553084589E+01  1.728674641763E+01 -2.628036082709E+01 -1.028062260483E+01      160
 H   1.681364677469E+01  1.710346984798E+01  1.497779373486E+01  0.000000000000E+00  3.164595851462E+00  5.503073589156E+01 -3.316749858570E+00  4.819133302114E+01 -3.723289394234E+00  3.219145165342E+00      164
 H   1.918521608423E+01  6.291257291281E+00  6.766496601711E+00  0.000000000000E+00 -1.491752960341E+01  6.124828735410E-01 -1.921546075251E+01  6.587496092657E-01 -5.448207372214E+01 -4.891788368364E+00      168
 H   5.610754051783E+00  2.002825790894E+01  3.437363989005E+01  0.000000000000E+00 -1.476351544779E+01 -3.010843139312E+01  4.261317618758E+01 -5.167380922828E+01  6.955680332913E+00 -5.270013483070E+01      169
 Si  1.255259051588E+01  4.433595765175E-01  1.981856405625E+01  0.000000000000E+00 -2.153520164155E+01 -1.659023750956E+02  4.005709859690E+01  1.346400882722E+01  2.537117999640E+01 -7.692257633290E+01      177
 Si  1.131760473937E+01  3.250965273195E+00  1.882423802913E+01  0.000000000000E+00  1.455495903677E+00  1.489561249076E+01  4.856179088087E-01  7.876450551271E+01  2.919656847598E-01  4.984720656884E-01      178
 Si  8.425971223260E+00  3.845512917565E+00  1.949707874803E+01  0.000000000000E+00 -7.746898013839E+00  8.543927706532E-01  2.305001505535E+01  4.331844278843E+00  9.961428892097E+00 -3.535591992177E+00      179
 O   1.192555924761E+01  1.808874095684E+00  1.899834037621E+01  0.000000000000E+00  1.657275571272E+01 -7.732816584240E+00 -2.940547575747E+01 -3.763743844747E+01 -1.845828300818E+01  1.758098173821E+00      180
 O   1.168251104644E+01  8.115297715364E-01  2.119949997663E+01  0.000000000000E+00  2.320722009279E+01  1.091389628358E+01 -2.128097996455E+01 -3.258531583788E+01 -1.172741261770E+01  3.724811917099E+00      182
 O   1.182987701541E+01  4.249953392652E+00  1.747415136006E+01  0.000000000000E+00 -7.131597172245E+00 -2.642737568456E+00  1.241365353420E+01 -1.086590651934E+01  8.403955739854E+00 -2.562068528501E+00      184
 O   1.186926510227E+01  4.233606708622E+00  2.005048780741E+01  0.000000000000E+00 -6.682995751346E+00 -3.563370568128E+00 -1.334631580676E+01 -1.687622942963E+01 -7.900603814262E+00 -2.383734410075E+00      185
 O   9.674321838461E+00  3.101627227115E+00  1.868830378069E+01  0.000000000000E+00  1.241306910797E+00  2.496889592702E+00  2.933228515955E+00  1.639020892320E+01  1.518436184584E+00  3.153643325268E-01      187
 O   6.953885879866E+00  3.944181474609E+00  1.882627472048E+01  0.000000000000E+00  2.827660533921E+00  2.237855284975E+00  1.123005812441E+01  1.072090289585E+01  4.148061354723E+00  1.603302162399E+00      188
 Ca  1.141573636777E+01  4.193823778133E+00  2.232223652235E+01  0.000000000000E+00  6.946384445591E+00  2.650999942147E+00 -2.933021225290E+00  1.411033244599E+01 -1.499966055616E+00  2.551908288828E+00      190
 O   1.560000330416E+01  1.916387462715E+01  7.571175097245E+00  0.000000000000E+00  1.566714094121E+00 -1.816710554200E+01 -8.791394354936E+00 -7.177376169731E+00 -1.811420013719E+01  1.924635007502E+00      193
 O   4.627722810443E+00  1.223654199430E+01  1.250717571281E+01  0.000000000000E+00 -9.557155913149E+00  3.865358392062E+00  1.709753562431E+01  3.950847929506E+00  6.326180860316E+00 -2.527086095422E+01      194
 Si  1.839084453773E+01  1.931616871717E+00  2.012114647440E+01  0.000000000000E+00 -3.176950374294E+01 -2.289060638079E+00  1.942973862755E+01 -7.732292205825E+01  1.775889375700E+01 -6.208491062530E+00      196
 Si  1.694289005655E+01  4.287786014282E+00  1.904977427440E+01  0.000000000000E+00  3.549387251823E+01  9.099529381748E-01 -4.147351683583E+01  4.339344720594E+00 -3.688659119454E+01  8.981789719078E+00      197
 O   1.995760826603E+01  1.737655642825E+00  2.073925574490E+01  0.000000000000E+00 -5.705007777643E+01  1.169626619909E+01 -1.362807505997E+01 -1.339413625082E+01 -1.311444281379E+01 -6.564973975726E+00      202
 O   1.816454364554E+01  3.448799141341E+00  1.979539439433E+01  0.000000000000E+00 -2.299626067206E-01  4.237637447269E+00  1.880659412537E+01  1.837619290762E+01  1.725720604547E+01 -6.311583687613E-01      205
 O   1.589600300674E+01  5.273726782653E+00  1.964234389877E+01  0.000000000000E+00 -2.133737060931E+01  4.871418624665E+00  4.629981195656E+01  1.814392057914E+01  3.746915102728E+01 -7.078978458045E+00      206
 Ca  1.403930445669E+01  5.773715752091E+00  1.824652224157E+01  0.000000000000E+00  7.340653356793E+00 -2.276063259533E+00  1.515529697332E-01 -7.192982937069E+00  1.166084284573E-01  3.018870774367E+00      209
 O   2.277426331265E+01  1.867919324052E+01  1.460816272770E+01  0.000000000000E+00  1.099331832351E+01  7.970913426562E+00  6.524800469066E+00  6.233695370262E+00  1.017222539993E+01  9.016595377875E+00      210
 O   1.438921167694E+01  1.766459591894E+01  5.039127607925E+00  0.000000000000E+00  1.676752039597E+01  1.391739553172E+01 -1.186259703043E-01  3.970174714220E+00 -3.387360531230E-01  2.058427376060E+01      212
 Si  1.397320854174E+01  3.520474801214E+00  1.476125729236E+01  0.000000000000E+00 -4.001041614699E+01 -5.451030421228E+00 -4.991476006246E+01 -2.098868943770E+01 -4.724999624691E+01 -1.009755754694E+01      213
 Si  1.143789473809E+01  5.167658839018E+00  1.605512509991E+01  0.000000000000E+00  2.343180430818E+00 -2.252593682971E+01  1.454810444718E+01 -6.998463812338E+01  1.036427223519E+01  1.058652605397E+00      214
 Si  9.348138462897E+00  6.075384083161E+00  1.453362064373E+01  0.000000000000E+00  4.083047932480E+00 -3.025166770297E-01 -3.081811071452E+01 -7.236847188865E-01 -1.982244983452E+01  2.653585472469E+00      215
 O   1.233863620039E+01  4.238627434951E+00  1.500552800261E+01  0.000000000000E+00  6.346297330228E+00 -1.440412429430E-02  5.312301736001E-01 -5.099327406531E-02  4.368160753543E-01  2.180110470671E+00      216
 O   1.488816709399E+01  3.790858304465E+00  1.597866088773E+01  0.000000000000E+00  1.286717369969E+00  4.453063712520E-01  3.914834639820E+01  1.855630915924E+00  3.647659379750E+01  3.409372693445E-01      217
 O   1.435498137155E+01  4.383486810302E+00  1.345320227957E+01  0.000000000000E+00  7.791457065112E+00  2.146943424664E+00 -1.823389417048E+00  6.589107125158E+00 -1.945612692866E+00  2.379226304371E+00      218
 O   1.402140321511E+01  1.820812149723E+00  1.440197468439E+01  0.000000000000E+00 -2.836924583004E+01  1.030095553013E+01  5.174920839144E+01  5.797800291767E+01  5.038173811718E+01 -2.875725844960E+00      219
 O   1.193971243329E+01  6.651149611274E+00  1.649069858988E+01  0.000000000000E+00 -5.721337330132E+00  1.888602462229E+00 -1.377288716614E+01  4.682555013937E+00 -9.971943349978E+00 -3.187134595735E+00      220
 O   9.742608820764E+00  4.967414456805E+00  1.565201146927E+01  0.000000000000E+00  2.167944533615E+01  8.675350191180E-01  1.488236447814E+01  2.733548446038E+00  9.263541348872E+00  1.105358863929E+01      222
 O   1.079345225584E+01  6.702860144121E+00  1.392607597963E+01  0.000000000000E+00 -1.673600467125E+01 -5.061963415345E+00  6.973294196495E+00 -1.051689661018E+01  5.404675235572E+00 -1.039325472738E+01      223
 O   2.127640971628E+01  2.080064980218E+01  1.325565892333E+01  0.000000000000E+00  2.701330637808E+01 -1.523747083350E+01 -3.368019983463E+01 -9.710404152945E+00 -5.405945756092E+01  2.640926422560E+01      224
 Ca  1.570118750783E+01  7.849781729982E+00  6.103606358726E+00  0.000000000000E+00 -3.776713540135E+00 -1.177879745548E+00  5.931878109465E+00 -9.158616827884E-01  1.525942614847E+01 -1.888161448422E+00      225
 Ca  1.664304621247E+01  4.827082262994E+00  1.557596274222E+01  0.000000000000E+00  1.660391864376E+01  2.628342231945E-01  9.224303017246E+00  8.481098611561E-01  9.856244775016E+00  4.815733860154E+00      226
 Si  2.130545892058E+01  2.438675807368E+00  2.028932228600E+01  0.000000000000E+00  1.808449151563E+01  1.055788950531E+01  2.498316506438E+01  5.664286821002E+01  2.623438030516E+01  6.224875281655E+00      228
 Si  2.301814376940E+01  4.374576253183E+00  2.172956339610E+01  0.000000000000E+00 -1.299381193245E+01 -8.677446934798E-01  5.040664050608E+01 -3.639351759254E+00  5.339579433563E+01 -2.476432911665E+00      229
 O   2.227203801399E+01  1.173420328045E+00  2.039370661176E+01  0.000000000000E+00 -7.522864317392E+00  2.387162340562E+01 -1.516843431184E+01 -2.045111501488E+01 -1.656549993768E+01 -5.996036919671E+00      230
 O   2.162154599145E+01  3.513677188951E+00  2.151697851185E+01  0.000000000000E+00  2.668462949759E+01 -1.371710601775E-01 -1.049926270457E+01 -4.920587173832E+00 -1.055028666400E+01  4.784019156658E+00      236
 O   2.328483213154E+01  4.383961859835E+00  2.341398639825E+01  0.000000000000E+00 -1.962266487144E+00  9.193329530772E+00  3.896393600477E+01  4.912862830470E+01  3.874900641110E+01 -3.729662149608E-01      237
 H   1.514511682326E+01  1.735728560479E+01  5.611318926170E+00  0.000000000000E+00 -1.354883827034E+01 -3.778021096869E+00 -3.880569236200E+00 -1.221370770005E+00 -1.047377188791E+01 -1.552784691038E+01      243
 H   1.941955239543E+01  1.811926351899E+01  6.914671494333E+00  0.000000000000E+00  1.364988864038E+01  1.980629351733E+01 -1.309516163145E+01  7.558475710073E+00 -3.677718856739E+01  1.273592327175E+01      247
 H   1.206785180055E+01  8.550983124323E+00  5.741734134683E+00  0.000000000000E+00 -1.712342609473E+01  1.420981501786E+01 -1.329968643587E+00  9.541473623482E+00 -2.795299140244E+00 -1.213323878902E+01      248
 H   5.722247006580E+00  1.013823355344E+01  1.017094133785E+01  0.000000000000E+00  1.637760566903E+01  3.452715081757E+01 -1.375427964282E+01  3.463854168259E+01 -7.738259704722E+00  2.901657183407E+01      249