     8448
Lattice="     49.70      0.00      0.00      0.00     49.70      0.00      0.00      0.00     49.70" pbc="T T T" config_type=md Properties=species:S:1:pos:R:3:charge:R:1:forces:R:3:id:I:1
 Si  1.103790500896E+01  1.739692078872E+01  1.654809430332E+01  0.000000000000E+00 -3.589182067021E+01 -3.471770756818E+01 -9.354940315053E+00 -3.302376931014E+01 -6.239929545320E+00 -5.656935447945E+01        1
 Si  1.280082717854E+01  1.976002176340E+01  1.710892242765E+01  0.000000000000E+00  2.585363902391E+01 -5.070247712670E+00 -3.543222924325E+01 -4.389998950593E+00 -2.651025188824E+01  3.990902014770E+01        2
 Si  1.127464703333E+01  2.245539572218E+01  1.817185374406E+01  0.000000000000E+00 -2.135324679757E+01 -4.799536017532E+00  2.934641578330E+01 -3.883987066138E+00  1.820785508789E+01 -4.252865791500E+01        3
 O   1.217324677355E+01  1.826752512823E+01  1.726800028580E+01  0.000000000000E+00  3.799582961461E-02  2.336376257352E+01  3.427923076145E+00  2.208539229946E+01  2.416548114199E+00  5.701763754277E-02        4
 O   9.879144426682E+00  1.812842148517E+01  1.554368974631E+01  0.000000000000E+00  1.199004963229E+01  8.285591179253E+00  2.125504064239E+01  7.104240088436E+00  1.350912297712E+01  2.200197344774E+01        5
 O   1.165775400346E+01  1.623431457763E+01  1.552943666230E+01  0.000000000000E+00  2.596412228691E+01 -1.908229747827E+00 -2.760318357118E+00 -1.825376295642E+00 -2.072136490091E+00  3.615702722948E+01        6
 O   1.019462778169E+01  1.671235416444E+01  1.786909565452E+01  0.000000000000E+00  2.690226582518E+00  2.044684633463E+01 -1.652162321333E+00  2.186206978333E+01 -9.425871474733E-01  4.410167824899E+00        7
 O   1.322542909671E+01  2.005287541161E+01  1.537718976511E+01  0.000000000000E+00  1.514239713661E-01  4.026429761772E+00  8.981087089647E+00  3.087595831111E+00  7.724345756921E+00  2.295945190081E-01        8
 O   1.442249850567E+01  1.933192849651E+01  1.748446544214E+01  0.000000000000E+00 -9.580631426927E+00  2.505066958248E+01  7.600247223845E+00  2.265669287450E+01  6.269253960975E+00 -1.284188600359E+01        9
 O   1.218737585017E+01  2.114293935584E+01  1.770635891691E+01  0.000000000000E+00 -3.992358404431E+00 -2.036483746496E+01  3.125414470217E+00 -1.705472996778E+01  2.151238490920E+00 -6.926034994684E+00       11
 O   1.865290832863E+01  1.767015217326E+01  2.068366546646E+01  0.000000000000E+00  3.982549783491E+01 -9.302823016850E+00 -1.783788025393E+01 -1.088935043046E+01 -1.608652710484E+01  3.772723238222E+01       13
 Ca  3.708340242001E+00  1.618413947678E+01  1.752001506618E+01  0.000000000000E+00  3.372499567739E+00 -1.499660498121E+01 -1.383334791075E+01 -1.623445877918E+01 -2.956097118121E+00  1.443391263226E+01       14
 Ca  2.254737906736E+01  1.321367554944E+01  1.825822486726E+01  0.000000000000E+00 -5.308720586915E+00 -8.817597420172E+00 -6.765997937842E+00 -1.218386783330E+01 -8.355440979757E+00 -3.111124854404E+00       15
 O   6.197256913582E+00  4.307911046314E+00  1.635186490536E+01  0.000000000000E+00 -2.597113472760E+01  7.037417599255E+00  4.501046921963E+01  2.673635442789E+01  1.705869288729E+01 -1.805471728613E+01       16
 O   9.932379031879E+00  1.639542948026E+01  2.061454213027E+01  0.000000000000E+00  1.425661963276E+01  3.205852031213E+00 -1.296893457479E+01  4.030828947814E+00 -6.248616778507E+00  2.353347582341E+01       18
 Si  2.020011771050E+01  1.963202886525E+01  1.809323076373E+01  0.000000000000E+00  2.360169330882E+01  4.467746177755E+01 -5.558652934614E+01  4.117555202406E+01 -6.205936632174E+01  2.293794179559E+01       19
 Si  1.799828521000E+01  2.158898688705E+01  1.837363032060E+01  0.000000000000E+00  2.999737779112E+01 -4.459622782297E+01 -2.685708492814E+01 -3.795428697045E+01 -2.630843584047E+01  3.598192762377E+01       20
 O   1.861560238690E+01  1.992346429592E+01  1.805613543509E+01  0.000000000000E+00  6.193762420500E+00  3.000890489862E+01  1.756137106547E+01  2.719631701897E+01  1.810550780918E+01  6.628912773144E+00       22
 O   2.134751885148E+01  2.091862764932E+01  1.802932855305E+01  0.000000000000E+00 -4.005302284035E+01 -2.405779178171E+01  1.992315035159E+00 -2.073490859748E+01  2.358988724734E+00 -3.924832093397E+01       23
 O   2.053957262150E+01  1.892743911663E+01  1.660906890945E+01  0.000000000000E+00 -3.773491566803E+00  2.619031066254E+00  1.400380808021E+01  2.298233120042E+00  1.731778190632E+01 -3.477313438013E+00       24
 O   2.083540670731E+01  1.880771421534E+01  1.928170810906E+01  0.000000000000E+00  2.731096451168E+00 -1.627992624441E+01  4.616710074123E+01 -1.669021457299E+01  4.988719438134E+01  2.465307362111E+00       25
 O   1.841874593161E+01  2.195464147528E+01  1.990644148784E+01  0.000000000000E+00 -7.678630496488E+00 -8.688257897058E+00 -1.564178005801E+01 -7.877709943647E+00 -1.447280132829E+01 -9.152717573582E+00       26
 O   2.153193233583E+01  1.714431567950E+01  2.112480245359E+01  0.000000000000E+00 -1.161688016196E+01  3.565023572584E-01 -7.669363461581E+00  4.392734018733E-01 -7.817172041082E+00 -9.249678923442E+00       27
 O   1.861483460000E+01  2.248784708286E+01  1.713025051601E+01  0.000000000000E+00  1.315877881023E+01  1.793900144090E+01 -7.496083680934E+00  1.366514044485E+01 -8.145727801118E+00  1.589660139562E+01       29
 Ca  4.682457781623E+00  9.717024967454E+00  1.358482023765E+01  0.000000000000E+00 -5.280427460858E-01  4.534550277724E+00  2.372447538891E+00  6.339496974414E+00  8.177425424580E-01 -1.095793018730E+00       32
 Si  1.244680626172E+01  1.846695592094E+01  1.157153126138E+01  0.000000000000E+00 -3.047096817886E+01  2.255191681925E+00  7.511771413598E+00  1.413119799469E+00  8.079964643870E+00 -4.520886839527E+01       37
 Si  1.247945497987E+01  2.073677774558E+01  1.399937016643E+01  0.000000000000E+00 -2.145588300038E+01  8.503975082039E+00  2.623621600601E+01  5.741021894539E+00  2.338774334820E+01 -3.565266895325E+01       38
 O   1.165118894437E+01  1.956914651633E+01  1.320668627052E+01  0.000000000000E+00  1.313600506932E+01 -2.450641932446E+01 -2.435166666339E+01 -1.653871779037E+01 -2.148350188637E+01  2.206301941101E+01       40
 O   1.327507429078E+01  1.728457672069E+01  1.207085189780E+01  0.000000000000E+00  1.918461152536E+01  5.332206268213E+00  3.636872001446E+00  3.723797995877E+00  3.999696658865E+00  2.497898561645E+01       41
 O   1.297762114691E+01  1.944622910209E+01  1.035032354578E+01  0.000000000000E+00 -3.991853886375E+00 -4.415071715507E+00 -8.495637554687E+00 -2.349937383408E+00 -1.065214677576E+01 -5.981566601287E+00       42
 O   1.091867336200E+01  1.796975883482E+01  1.088047321342E+01  0.000000000000E+00  2.328917511938E+01  4.069396951941E+00  1.977486311515E+01  2.463970993566E+00  1.984429049155E+01  3.832891107573E+01       43
 O   1.311942092000E+01  2.179453089594E+01  1.300006659235E+01  0.000000000000E+00 -1.065969151365E+01  1.912614868751E+00  2.056852702335E+01  1.140842203854E+00  2.075736780322E+01 -1.770832550096E+01       44
 O   1.124565645083E+01  2.157028114883E+01  1.488811697083E+01  0.000000000000E+00 -1.131709994561E+00  5.967180405078E+00 -5.719030848908E+00  4.118633375423E+00 -4.319838182664E+00 -2.170731683682E+00       46
 O   8.717188832742E+00  2.148773525140E+01  1.573632401820E+01  0.000000000000E+00  3.044608590533E+00  1.490313511779E+01 -1.164258270960E+01  1.091415918695E+01 -6.449447270084E+00  7.504912947599E+00       47
 O   1.737737485699E+01  1.593112640494E+01  1.011996332371E+01  0.000000000000E+00 -2.577067661058E+00 -9.830144743158E+00 -1.317238291961E+01 -6.244423761314E+00 -2.261880092171E+01 -2.362588768457E+00       48
 Ca  7.176022595049E+00  2.156461384689E+01  1.339250111723E+01  0.000000000000E+00  4.048565273113E+00  3.887116364713E+00  7.164961375310E+00  2.414057150609E+00  3.839157769847E+00  1.216631436038E+01       49
 Si  2.089817101319E+01  2.109369758124E+01  2.327419117706E+01  0.000000000000E+00 -3.932052492183E+00 -3.545467572082E+01 -1.220202381693E+02 -3.911968955035E+01 -1.095634123194E+02 -3.968841392450E+00       51
 Si  1.953851771022E+01  2.280208892386E+01  2.064766053592E+01  0.000000000000E+00  3.683382545920E+01  2.183940417771E+01  4.065488108865E+01  1.977593391877E+01  3.847099833784E+01  4.298627848762E+01       52
 O   2.025701404368E+01  2.219472721250E+01  2.198076899523E+01  0.000000000000E+00  3.643783944326E+01 -4.017558085284E+01  5.408200028296E+01 -3.978828635831E+01  4.984083311553E+01  3.992335222319E+01       54
 O   1.956530703797E+01  2.003911153587E+01  2.310500998419E+01  0.000000000000E+00  5.129870203605E+00  5.795669920937E+00  2.412992615277E+01  6.682382656968E+00  2.043320536565E+01  5.254098030513E+00       55
 O   2.201282733815E+01  1.998145599773E+01  2.248459555095E+01  0.000000000000E+00 -2.321312142149E+01  3.553942039296E+01  3.210158329615E+01  3.999155485676E+01  3.142803297387E+01 -2.107098543627E+01       56
 O   2.152438683647E+01  2.166975853197E+01  2.462765441699E+01  0.000000000000E+00 -8.423602519656E+00  2.635740382822E+00 -1.592180830106E+00  2.995515763836E+00 -1.391554206526E+00 -8.480493960506E+00       57
 O   1.652956646555E+01  2.118134167979E+01  1.810218860341E+01  0.000000000000E+00 -2.555931459467E+01  1.033349071217E+01  6.312182479010E+00  8.831300709428E+00  5.763813542954E+00 -3.275225497653E+01       58
 O   1.708600687052E+01  1.807875682028E+01  1.435524927929E+01  0.000000000000E+00 -3.639835786795E+01  1.039375932139E+02  1.141845481969E+01  8.253056750013E+01  1.359055448667E+01 -3.851321526084E+01       59
 H   2.350215643685E+00  8.449397524019E+00  1.472997191549E+01  0.000000000000E+00  1.080277747952E+00 -3.971062782395E+00 -3.537619443325E+00 -6.922818235624E+00 -2.061753882286E-01  1.954639827144E+00       70
 H   1.490689788054E+01  1.962474718686E+01  1.829132528704E+01  0.000000000000E+00 -4.324947453318E+00 -3.670392243109E+00 -2.829664407516E+00 -3.421003991058E+00 -2.306094156497E+00 -5.693739975142E+00       73
 H   1.576773350637E+01  1.141702672152E+01  1.818982157365E+01  0.000000000000E+00  1.429741246175E+01  7.829917557336E+00 -9.080425903502E+00  1.247477182793E+01 -7.871310622322E+00  1.035240353716E+01       83
 Si  2.259062165601E+00  2.126476558976E+01  2.177159345116E+01  0.000000000000E+00  1.035710451576E+01  1.016708543094E+01 -3.366999145055E+01  1.040940938904E+01 -4.706956298397E+00  3.674427944440E+01       89
 Si  2.915835098167E+00  2.081744328546E+01  1.858347097818E+01  0.000000000000E+00 -6.110206589884E+00 -1.159431113392E+02  7.524884168568E+01 -1.035009638382E+02  9.624473208565E+00 -2.854635414149E+01       90
 O   2.056311940397E+00  2.075989528421E+01  2.013033285895E+01  0.000000000000E+00  4.375964505716E-01  2.938097737815E+00 -2.459693810008E+01  2.848997291394E+00 -1.485316432931E+00 -2.655461108493E-01       92
 O   1.260334458689E+00  2.062114523752E+01  2.283693453300E+01  0.000000000000E+00  5.071752404020E+00 -5.029035658352E+00 -2.978648550130E+00 -5.569417060549E+00 -7.219807276855E+00 -1.559377165133E+01       95
 O   1.945571223126E+00  1.963902300088E+01  1.764146247343E+01  0.000000000000E+00  4.860725739153E+00  2.761583093336E+00 -1.297577652665E+00  2.480691860596E+00  4.063594097383E-01  4.796297691636E+01       96
 O   4.459801840251E+00  2.055298758451E+01  1.889228102023E+01  0.000000000000E+00 -4.074350153510E-02 -2.176359050028E+00 -1.362730126468E+01 -2.000506573801E+00 -3.216743600542E+00 -1.847435340704E-01       97
 O   1.099633493881E+01  1.355532002298E+01  2.127638609927E+01  0.000000000000E+00  8.241328714794E+00  1.759326188883E+01 -2.772401823921E+01  2.761432648272E+01 -1.432868293449E+01  1.015918929036E+01       98
 O   3.883310964375E+00  1.252445091734E+01  2.028989887117E+01  0.000000000000E+00 -4.827022348367E+00 -6.157395413059E+00  5.145831085026E+00 -9.975122347902E+00  1.009266135102E+00 -1.496736043915E+01      101
 Ca  2.210672813099E+01  2.433166599214E+01  1.849950058529E+01  0.000000000000E+00 -3.943485612297E+00 -1.194072350615E+01 -1.910902552267E+01 -9.078598299115E+00 -2.283510466297E+01 -4.340378829227E+00      102
 O   1.660748692696E+01  4.533114308378E+00  1.195703107024E+01  0.000000000000E+00  1.847505234578E+01 -3.906129742663E+00  3.601011141735E+01 -1.030322897684E+01  5.001554742886E+01  5.042877619296E+00      105
 Si  5.600230544542E+00  1.599047563475E+01  2.032132764092E+01  0.000000000000E+00  1.620694465668E+01 -7.237784447774E-01 -3.910874365110E+01 -9.198062178838E-01 -1.077773975321E+01  4.627608659770E+01      107
 Si  8.565800785682E+00  1.664593709709E+01  2.130146422824E+01  0.000000000000E+00 -1.760489822070E+01  1.013261767245E+01 -1.406890335704E+01  1.296650297483E+01 -5.657424397598E+00 -3.421163248066E+01      108
 Si  7.570649060060E+00  1.938639999024E+01  2.060519412140E+01  0.000000000000E+00 -4.499388143454E-01  1.257811038428E+01  7.374747821820E+01  1.336887747488E+01  2.709589986704E+01 -1.152172522704E+00      109
 O   7.317481623625E+00  1.606399090543E+01  2.029368848455E+01  0.000000000000E+00  1.839730416829E+00  1.278222214877E+01  2.734591148009E+01  1.614782005010E+01  9.860366433100E+00  4.038740950024E+00      110
 O   5.019026752391E+00  1.700217729913E+01  1.917406301751E+01  0.000000000000E+00 -6.192765658690E-02  4.727470691578E-01 -2.811178364781E+00  5.331365469196E-01 -7.358575699732E-01 -2.097827026940E-01      111
 O   4.947574246266E+00  1.640389624051E+01  2.168141699632E+01  0.000000000000E+00 -1.137642554229E+00 -2.233114006570E+01  3.364320715930E+01 -2.951559511648E+01  7.677185736126E+00 -3.771903055813E+00      112
 O   5.518910996839E+00  1.440873129904E+01  1.997237516473E+01  0.000000000000E+00 -4.296750289255E+00 -5.759478017236E+00  8.037788840724E+00 -7.983385443580E+00  2.221059881835E+00 -1.121792332082E+01      113
 O   8.767193553851E+00  1.582902343097E+01  2.273446637407E+01  0.000000000000E+00  3.914972354969E+00 -9.301375585041E+00  2.058060092107E+01 -1.335911917706E+01  7.936588823364E+00  7.068418047094E+00      114
 O   1.181102734316E+01  1.271280922093E+01  3.706483311848E+01  0.000000000000E+00  3.141594265819E+01  8.069598975430E+00 -7.362438740451E+01  2.352732068573E+01 -2.346104324761E+01  3.381457631969E+01      115
 O   8.179932870569E+00  1.824363151339E+01  2.171788354499E+01  0.000000000000E+00  1.504954190973E+00 -4.030619520711E-01 -9.758524489681E+00 -4.798196307612E-01 -3.675499736244E+00  3.356485944209E+00      117
 O   6.044860447931E+00  1.968144406934E+01  2.104852845601E+01  0.000000000000E+00  2.389341119555E+00 -9.697509317378E+00 -2.860565707801E+00 -1.037110387328E+01 -8.215168362926E-01  7.779449006668E+00      118
 O   6.806263539384E+00  1.008312602618E+01  2.255458102464E+01  0.000000000000E+00  1.029225888820E+01 -2.618087919132E+01 -5.435972026707E+01 -5.856306461742E+01 -1.640405475325E+01  1.524744712915E+01      119
 Ca  2.318389139803E+01  1.879851183865E+01  2.087725222624E+01  0.000000000000E+00 -1.067378241991E+01  1.820373125387E+01  2.624001443691E+00  2.021670077439E+01  2.913916249110E+00 -8.654769026428E+00      120
 Ca  3.101650239805E+00  1.248024200804E+01  1.766098176843E+01  0.000000000000E+00 -1.055966182599E+00  1.138507079643E-01  2.004141858187E+00  1.611118819960E-01  1.206962335280E+00  3.500651515345E+00      121
 Si  1.364693434441E+00  1.700963131005E+01  1.460831611900E+01  0.000000000000E+00 -3.328632635978E+00  2.481510920286E+01 -3.841896799530E+01  2.131186462276E+01 -3.771593694652E+00 -1.838514003923E+01      125
 Si  2.714989024794E+00  1.893802137823E+01  1.620582180002E+01  0.000000000000E+00 -6.068792013594E+00 -1.715447649789E+01  4.295670708376E+01 -1.467958999756E+01  6.226833406573E+00 -3.537544910152E+01      126
 Si  3.163058546293E+00  2.081307623623E+01  1.362804254952E+01  0.000000000000E+00 -2.150426736362E+00  3.388662513919E+01  2.120082349612E+01  2.218837638487E+01  4.082188777863E+00  5.386983076965E+00      127
 O   1.220808972704E+00  1.808698119321E+01  1.588577836405E+01  0.000000000000E+00  3.081515785001E+00  1.245597262546E+01 -1.396901482310E+01  1.094006889945E+01 -1.694472315728E-01  3.222563955069E+01      128
 O   2.885425505662E+00  1.667556925644E+01  1.413699572202E+01  0.000000000000E+00  1.141522729840E-01  6.768750129331E+00 -3.365032320809E+00  5.738322341520E+00 -6.015730390623E-01 -1.896168826308E+00      129
 O   8.511376575940E-01  1.564878538364E+01  1.529350714499E+01  0.000000000000E+00  6.687349323683E+00 -2.991306797209E+01  1.525999508753E+01 -2.923394420362E+01  6.792494937789E+00 -7.875707632278E+00      131
 O   4.100123274306E+00  1.806344226679E+01  1.635508353236E+01  0.000000000000E+00 -3.334938553626E+00 -9.775728968822E+00  1.743694044637E+01 -8.851184702971E+00  4.371338898657E+00 -1.469235255380E+01      132
 O   2.392795874334E+00  5.069250515465E+00  9.026666044685E+00  0.000000000000E+00  1.159055716588E+01 -7.829354278308E+00 -1.097264221430E+01 -1.394150204260E+01 -2.532653094507E+00 -1.762376113249E+00      133
 O   3.380944929340E+00  2.005637615079E+01  1.535632440185E+01  0.000000000000E+00 -3.321797402952E+00  6.451731024156E+01 -5.407365940782E+01  4.939819328057E+01 -1.195780798444E+01 -1.186492163544E+01      134
 O   1.636246592043E+00  2.145260364864E+01  1.331121052641E+01  0.000000000000E+00  3.320728595508E+01 -2.450252456259E+01  5.575618159857E+00 -1.520366796605E+01 -1.265483803471E+00  7.726817449454E+00      135
 O   8.077787445268E+00  1.636991437337E+01  1.272297627915E+01  0.000000000000E+00  1.817012227598E+00 -1.872530562646E+01 -6.842169599683E+00 -1.455362648034E+01 -4.344077240897E+00  3.682237838353E+00      136
 Si  9.019750292795E+00  1.387247154474E+01  2.613284462819E+01  0.000000000000E+00 -2.710384745068E+00 -1.897903977365E+01 -4.828370373532E+01 -3.575255469060E+01 -1.666511844004E+01 -4.168600463506E+00      139
 Si  8.502693507455E+00  1.616340635297E+01  2.435588910623E+01  0.000000000000E+00 -8.488274033111E+00 -2.702011977859E+01  1.130070686494E+00 -4.071536819608E+01  3.945101181528E-01 -1.613599529517E+01      140
 O   7.908619679645E+00  1.457443631405E+01  2.513278663451E+01  0.000000000000E+00  6.914532607915E+00  3.084277612541E+01 -5.833790408819E+00  5.318661352470E+01 -1.835738722692E+00  1.274247836128E+01      142
 O   8.227611619580E+00  1.243888536719E+01  2.668454395639E+01  0.000000000000E+00 -2.870465267260E+00  2.134949522294E+01 -1.152675386455E+01  4.580004774591E+01 -3.554029410697E+00 -4.339702706066E+00      143
 O   7.095611862182E+00  1.695279458363E+01  2.411635923215E+01  0.000000000000E+00  5.694299216618E+00 -1.402436712122E+01  2.261104170809E-02 -1.995049688300E+01  6.652711307533E-03  1.360478656274E+01      148
 O   1.370832802833E+01  1.486338176941E+01  1.058141100182E+00  0.000000000000E+00 -1.463019733820E+01  2.349988054756E+01  3.240759811464E+01 -2.375297351967E+01 -9.988292601189E+00 -1.586292711628E+01      150
 Ca  5.809913720143E+00  1.118736741988E+01  8.221848168720E+00  0.000000000000E+00 -3.283808086014E+00 -6.606976620534E+00  3.392357429647E+00 -4.855615855772E+00  2.397186565560E+00 -6.323186429987E+00      151
 Ca  1.296407223450E+01  2.239600479067E+01  1.706822574615E+00  0.000000000000E+00 -1.088534798476E+01 -3.598192542310E+01 -1.377843812084E+01 -7.513365723891E+00 -4.085374301265E+00 -1.880491725169E+01      152
 H   7.675470012989E+00  1.955563004230E+01  1.583236805617E+01  0.000000000000E+00 -2.647541084952E+01 -9.493404149920E+00 -3.523532748472E+00 -7.685923096438E+00 -1.708194873611E+00 -6.745428474282E+01      155
 H   1.140533553088E+01  1.255785900585E+01  3.614027017429E+01  0.000000000000E+00  1.033139598877E+01  1.890933827162E+00  2.935140664231E+01  5.441919626865E+00  9.262870461243E+00  1.137539652466E+01      156
 H   1.751527593488E+01  1.738541708371E+01  1.398947386242E+01  0.000000000000E+00  3.940567929847E+01 -7.609349763140E+01 -1.757455203961E+01 -6.122993719903E+01 -2.200391032808E+01  3.911352425266E+01      159
 H   1.702481893864E+01  3.720104784539E+00  1.161668308271E+01  0.000000000000E+00 -8.157824095030E-02 -2.919644216011E-01 -9.337202786910E+00 -1.292984879036E+00 -1.368412874043E+01 -3.324056584358E-02      160
 H   1.597156231543E+01  1.771055525640E+01  2.114691556196E+01  0.000000000000E+00 -1.977720237423E+01  3.229099042217E+01  5.170932206121E+00  3.855637714257E+01  3.905433192701E+00 -2.193055560552E+01      164
 H   1.776393219997E+01  7.002657874116E+00  3.545764764869E+00  0.000000000000E+00  5.105956326621E+01 -1.771706429043E+01  3.491412653127E+00 -9.397787124349E+00  1.626790161592E+01  2.012801269055E+01      168
 H   5.821481073742E+00  2.203691672560E+01  3.048685335097E+01  0.000000000000E+00  3.875650201682E+00  2.486816655789E+00 -2.660169871068E+01  3.440373063066E+00 -5.079608701851E+00  1.467107419403E+01      169
 Si  1.245382903632E+01  7.513220028600E-01  1.968722145940E+01  0.000000000000E+00 -7.374155950467E+00 -9.839379662826E+01  2.974627640658E+01  2.575231900501E+00  1.881703020403E+01 -1.112886299029E+02      177
 Si  1.081561323402E+01  3.355517750608E+00  1.915563929713E+01  0.000000000000E+00  1.240431969416E+01  5.083911659022E+00 -8.802280707162E+00  2.186132188564E+01 -4.969923594262E+00  3.366694510242E+00      178
 Si  8.053390058114E+00  4.057493810355E+00  2.035453893348E+01  0.000000000000E+00 -1.627037458619E+00 -3.488206002414E+00 -4.308762016107E+01 -1.749868963519E+01 -1.704786401535E+01 -8.197410494119E-01      179
 O   1.132372337169E+01  1.726406605380E+00  1.907848539078E+01  0.000000000000E+00 -5.785145073975E+00  1.861742522335E+01 -2.666410800471E+00  3.634815476164E+01 -1.582604576902E+00  6.571038927274E-01      180
 O   1.271453641727E+01  1.474485007167E+00  2.141390681086E+01  0.000000000000E+00 -4.088187680915E-01 -1.016867120147E+01 -5.663271330223E+01 -3.046620888827E+01 -3.362575087535E+01 -3.450578037710E+00      182
 O   1.137920747209E+01  3.893039718526E+00  1.759310081300E+01  0.000000000000E+00 -5.184976822505E-01 -1.158311299818E+00 -1.602395792587E+01 -6.001520099827E+00 -1.036428675654E+01 -3.083284143224E-01      184
 O   1.150302606996E+01  4.460242826845E+00  2.018995407250E+01  0.000000000000E+00 -1.032123570452E+01 -1.158036920422E+01 -1.128334440600E+01 -5.242159770713E+01 -6.428573556553E+00 -4.002034084080E+00      185
 O   9.241530754361E+00  3.549282509042E+00  1.908421907327E+01  0.000000000000E+00 -2.344390647312E+01  4.579477102188E-01  3.207130763828E+01  3.298673883114E+00  1.553052680509E+01 -8.935002903426E+00      187
 O   6.573032232931E+00  4.275851523648E+00  1.972494215687E+01  0.000000000000E+00  5.793135323978E+00  2.016319479428E+00 -2.074444429856E+00  9.383970237900E+00 -6.912765570832E-01  3.764033753542E+00      188
 Ca  1.152431676679E+01  3.029877615017E+00  2.248666979191E+01  0.000000000000E+00  6.282824974515E+00 -3.048959094627E+00 -1.747036802027E+01  6.336925536256E+00 -8.953484751683E+00  1.576610114596E+00      190
 O   1.545754464118E+01  2.052482592917E+01  8.926514840460E+00  0.000000000000E+00 -5.940588595607E+00  1.226162785441E+01 -5.420515246689E+00  5.332742084550E+00 -9.386401961057E+00 -7.888028122967E+00      193
 O   4.629114973612E+00  1.206397597443E+01  1.270242550562E+01  0.000000000000E+00  4.179648822948E+00  7.847031064690E+00 -1.230859744981E+01  8.262311509135E+00 -4.481737741222E+00  1.096238443150E+01      194
 Si  1.777115070668E+01  1.864730100425E+00  1.998371178039E+01  0.000000000000E+00  2.328629957256E+01 -4.598748895261E-01 -2.034666025282E+01 -3.089795992422E+01 -1.809391416890E+01  3.597556639715E-01      196
 Si  1.534155815884E+01  3.409329848083E+00  1.985560933794E+01  0.000000000000E+00 -1.769668568163E+01  2.223074976481E+00 -2.800737065878E+01  1.342396167746E+01 -2.164006646812E+01 -3.679273996377E+00      197
 O   1.909553462682E+01  2.842612846660E+00  2.030418449772E+01  0.000000000000E+00 -1.361991125402E+01  3.311825456102E+00  8.085888512836E+00 -3.390793731810E+00  7.604558759937E+00 -1.345655981059E+00      202
 O   1.624213519154E+01  2.214736725534E+00  2.046681725900E+01  0.000000000000E+00  1.167887647305E+01  1.272947451297E+00  1.528249406797E+01 -7.868650420846E+00  1.212794014695E+01 -1.981125404058E-01      205
 O   1.451299880464E+01  4.349186186404E+00  2.086338977472E+01  0.000000000000E+00  5.162336190369E+00 -2.686781007669E-01 -2.089813967386E+00 -1.288870078213E+00 -1.453717154216E+00  1.547024260867E+00      206
 Ca  1.333087922098E+01  5.082558660451E+00  1.894754854362E+01  0.000000000000E+00 -3.093172901523E+00  2.504629152583E+00 -3.662103908154E+00  9.337144069111E+00 -2.576537264538E+00 -1.179309515772E+00      209
 O   2.259555484564E+01  1.890852493444E+01  1.444492110102E+01  0.000000000000E+00  3.501839856336E+01 -8.867352106057E+00  4.742654464400E+00 -6.774098032031E+00  7.418725814756E+00  2.930427099148E+01      210
 O   1.307980261844E+01  1.730816444511E+01  4.039014164529E+00  0.000000000000E+00 -4.164701830540E+00 -3.885733986058E+01  1.049751333604E+01 -9.083953620992E+00  3.239253841097E+01 -5.511042196173E+00      212
 Si  1.293996498685E+01  3.948866158169E+00  1.401867501359E+01  0.000000000000E+00  5.771479696512E+00 -9.173214730760E+00 -3.186913108880E+01 -3.054111036361E+01 -2.941686286691E+01  1.867904736523E+00      213
 Si  1.155536540706E+01  5.092274454309E+00  1.645865768423E+01  0.000000000000E+00 -1.292235642006E+01  1.171453170802E+01  6.567926387199E+00  3.786234796325E+01  4.611238098931E+00 -5.694686681835E+00      214
 Si  9.595399546885E+00  6.995829659135E+00  1.464563105001E+01  0.000000000000E+00  1.465739063733E+01 -3.170032683672E+01 -3.056049653700E+01 -6.636400736386E+01 -2.002236527893E+01  1.068643443612E+01      215
 O   1.275377075757E+01  4.514447705053E+00  1.546946605663E+01  0.000000000000E+00 -1.266605120293E+01  9.030280702260E+00  5.384935201503E+01  3.014279253413E+01  4.439599198378E+01 -4.535075159105E+00      216
 O   1.361520683999E+01  2.505232924278E+00  1.451402113093E+01  0.000000000000E+00 -1.256869804966E+01  6.986440015304E+00  4.004553153043E+00  1.138396044787E+01  3.756561947139E+00 -2.693793256690E+00      217
 O   1.380492361303E+01  4.770133317943E+00  1.300993581104E+01  0.000000000000E+00  7.404507920321E+00  4.745417197621E+00 -1.080785669014E+01  1.294252571630E+01 -1.146828379440E+01  2.558542946253E+00      218
 O   1.147230252524E+01  3.855676945855E+00  1.316370262530E+01  0.000000000000E+00  6.771767439063E+00 -4.084932219104E-01  1.100045951379E+00 -1.394640519212E+00  9.587013855533E-01  2.275894271446E+00      219
 O   1.180454424743E+01  6.455075527489E+00  1.759907874352E+01  0.000000000000E+00  8.448179166797E+00 -1.058828062387E+01 -2.791926509957E+01 -2.886782403467E+01 -1.872678706805E+01  4.619715378109E+00      220
 O   1.041301085111E+01  5.845990658447E+00  1.546484039671E+01  0.000000000000E+00  6.791687630808E+00 -9.030058708251E+00  3.074661232950E+01 -2.388789597094E+01  2.070275538634E+01  3.812935856160E+00      222
 O   1.045587944345E+01  7.226451801502E+00  1.338966204980E+01  0.000000000000E+00  9.790130753775E+00  5.472990083095E+00 -2.267845150894E+01  1.014072875977E+01 -1.770942045136E+01  6.766327825907E+00      223
 O   2.148507311689E+01  2.086149659477E+01  1.258647341797E+01  0.000000000000E+00  7.112434826506E+00  2.153905589046E+01 -1.199557605304E+01  1.299526873261E+01 -2.047641305234E+01  6.906005583804E+00      224
 Ca  1.610202146441E+01  6.421494697825E+00  6.228880177752E+00  0.000000000000E+00  4.796467176580E+00  1.214396872875E+00 -4.516769180065E-01  1.177970700799E+00 -1.167611387789E+00  1.912833653264E+00      225
 Ca  1.692940123836E+01  3.710485823499E+00  1.654087715426E+01  0.000000000000E+00 -6.877488495873E+00 -2.133487920288E+00  2.738929635889E+01  1.535831283296E+00  2.803263595827E+01 -6.948891424368E-01      226
 Si  2.066279202432E+01  2.410319946748E+00  2.002441287378E+01  0.000000000000E+00 -2.418623659303E+01  4.506249119976E+00 -7.919172982065E+01  2.824716441419E+01 -8.171636560056E+01 -7.508547819885E-01      228
 Si  2.266035911906E+01  4.781434117917E+00  2.069256224456E+01  0.000000000000E+00 -7.334790705599E+01  6.715093163501E+00  2.295666966754E+01  2.906083819979E+01  2.513977595892E+01 -1.547672671173E+01      229
 O   2.119911171095E+01  1.431965474938E+00  2.114677911804E+01  0.000000000000E+00 -1.877736888523E+01  3.228641612992E+00  3.948338308114E+01 -2.497171684467E+00  3.958109383898E+01  4.987756252120E+00      230
 O   2.147703248373E+01  3.857680421324E+00  1.991091563119E+01  0.000000000000E+00  1.565846004588E+01 -1.602636849732E+00  2.220289968862E+01 -9.314205729758E+00  2.394929528497E+01  2.701792664762E+00      236
 O   2.290617024239E+01  4.629882941166E+00  2.239182158403E+01  0.000000000000E+00  3.965611833909E+01  2.453117591271E+00  4.342645758251E+00  1.192513091530E+01  4.442397983013E+00  8.015425478169E+00      237
 H   1.289917851754E+01  1.663184807667E+01  4.878697645239E+00  0.000000000000E+00  6.382756120792E+00  3.370435663315E+01 -1.445523827552E+01  9.886656286323E+00 -3.821935946605E+01  8.229751217655E+00      243
 H   1.824601176858E+01  1.869724881987E+01  7.005554295394E+00  0.000000000000E+00 -1.975825029184E+00  4.354877215054E+00  1.357235074117E+00  1.631701491153E+00  3.534927586151E+00 -2.024688609420E+00      247
 H   1.440004727787E+01  6.806661630394E+00  7.828658802774E+00  0.000000000000E+00  4.924160186957E+01  1.537018127294E+01 -9.526217003503E+00  1.767796189329E+01 -1.752253849421E+01  2.327568205835E+01      248
 H   6.089200379019E+00  7.770213219562E+00  7.602121068786E+00  0.000000000000E+00 -9.816722983092E+00 -8.518850679780E+00 -5.704494405608E-01 -8.334563338823E+00 -4.569226033425E-01 -1.252677296658E+01      249