     8448
Lattice="     49.70      0.00      0.00      0.00     49.70      0.00      0.00      0.00     49.70" pbc="T T T" config_type=md Properties=species:S:1:pos:R:3:charge:R:1:forces:R:3:id:I:1
 Si  1.085213919210E+01  1.772925200868E+01  1.688237368044E+01  0.000000000000E+00  1.539285717239E+01 -1.029096860485E+01 -1.550927788022E+01 -9.799396919604E+00 -9.969501061336E+00  2.514746992386E+01        1
 Si  1.245711017651E+01  2.060825924673E+01  1.687822852406E+01  0.000000000000E+00  2.037335067288E+01 -6.658828169465E+01 -2.343598325881E+01 -5.453601015063E+01 -1.729711297211E+01  3.370438941635E+01        2
 Si  1.070964306731E+01  2.266029278092E+01  1.783740860872E+01  0.000000000000E+00 -7.109285139244E+00 -1.211921352876E+01  6.434718851526E+00 -9.539831008310E+00  3.863427903123E+00 -1.504237645511E+01        3
 O   1.146803883489E+01  1.933121260717E+01  1.693011826602E+01  0.000000000000E+00 -3.709767444460E-01  4.336717412612E-01  1.858670351045E+00  3.798061724001E-01  1.259016826234E+00 -6.253406029097E-01        4
 O   9.683496222678E+00  1.791835272588E+01  1.578779352580E+01  0.000000000000E+00 -8.285953161429E+00 -3.320092534975E+00 -1.132245660203E+01 -2.925321106834E+00 -6.944666812249E+00 -1.533233741228E+01        5
 O   1.189436815129E+01  1.658386871485E+01  1.626693294785E+01  0.000000000000E+00 -1.224475583079E+01  1.413644661289E+01 -7.153130958164E-01  1.386628374396E+01 -5.230363543244E-01 -1.707240103554E+01        6
 O   1.020837774677E+01  1.749900512839E+01  1.834581229133E+01  0.000000000000E+00 -9.994589310618E-01 -9.115791024747E+00  2.615933716410E+01 -9.556919939159E+00  1.455614998865E+01 -1.713253309597E+00        7
 O   1.296828627268E+01  2.110961971273E+01  1.534249689338E+01  0.000000000000E+00 -1.138709826257E+01 -2.729813908290E+00  7.525788660719E+00 -1.984032018454E+00  6.361192865677E+00 -1.853578097368E+01        8
 O   1.395149239948E+01  2.005838336884E+01  1.767004439461E+01  0.000000000000E+00 -1.410449864292E+01 -6.234854845172E+00  2.138771404762E+00 -5.492474636780E+00  1.688680137491E+00 -2.027836398460E+01        9
 O   1.207321372863E+01  2.174979674296E+01  1.786107325060E+01  0.000000000000E+00 -7.972190831235E+00  1.567845324477E+01  2.191022149826E+01  1.287524684348E+01  1.481024030744E+01 -1.436183721027E+01       11
 O   1.922225859689E+01  1.834036464609E+01  2.139468405029E+01  0.000000000000E+00 -1.316416630088E+01 -4.159148044339E+00 -3.167604338106E+01 -4.851793300958E+00 -2.845964426330E+01 -1.256021028970E+01       13
 Ca  3.834793919154E+00  1.584222997333E+01  1.618112610932E+01  0.000000000000E+00 -7.442026137986E-02  1.351460132692E+01 -8.634692106918E+00  1.380370495543E+01 -2.046351073570E+00 -3.074436124368E-01       14
 Ca  2.084507235751E+01  1.438598847655E+01  1.870977476006E+01  0.000000000000E+00 -2.471810514923E+01  4.561772341963E+00 -1.198377420889E+00  5.932837577615E+00 -1.335145097703E+00 -1.705891779795E+01       15
 O   7.535929773132E+00  3.877455113629E+00  1.621599115103E+01  0.000000000000E+00  1.540325459370E+01 -4.228271067619E+00 -2.439378169188E+01 -2.007676769952E+01 -1.133632992390E+01  8.170813056158E+00       16
 O   9.392583206834E+00  1.593036232386E+01  2.079625786491E+01  0.000000000000E+00  8.981482573087E-02  7.312196069694E+01  2.697718262457E+01  9.545690922316E+01  1.218418400720E+01  1.523311196122E-01       18
 Si  2.047024452713E+01  1.965386211462E+01  1.812622839548E+01  0.000000000000E+00 -9.046230843905E+00  2.628182007741E+00  7.593504286970E+01  2.423901575140E+00  8.575467889993E+01 -8.685454315285E+00       19
 Si  1.830781528714E+01  2.186992685454E+01  1.895752762016E+01  0.000000000000E+00  5.218848824305E+01 -6.513001228712E+00 -1.499534321011E+01 -5.645670491021E+00 -1.448142284999E+01  6.234268822484E+01       20
 O   1.900648794620E+01  2.033668040544E+01  1.867252276138E+01  0.000000000000E+00  6.014797961443E+00  1.587325048025E+01  3.388404889414E+00  1.457433686229E+01  3.449007802026E+00  6.435751002047E+00       22
 O   2.162051213923E+01  2.079785458719E+01  1.800921506779E+01  0.000000000000E+00 -6.208983976532E+00 -1.479678942117E+00  1.875640685905E+00 -1.281279094829E+00  2.251753453206E+00 -5.972732979057E+00       23
 O   2.025204929649E+01  1.919566528960E+01  1.667063766018E+01  0.000000000000E+00 -7.674120557158E+00 -1.808389051428E+01 -3.866753162027E+01 -1.570510746576E+01 -4.697461323976E+01 -7.273824364668E+00       24
 O   2.089951463481E+01  1.851826598128E+01  1.939467822666E+01  0.000000000000E+00 -5.801942991572E+00 -3.699030919088E+00 -8.279014740539E+00 -3.874094610085E+00 -8.921384913403E+00 -5.140881278994E+00       25
 O   1.875357962156E+01  2.234641837769E+01  2.046097179190E+01  0.000000000000E+00  1.716914540710E+01  8.587154970580E+00  7.994066661519E+00  7.862626245334E+00  7.326991462655E+00  2.045843589313E+01       26
 O   2.128217474908E+01  1.675529399929E+01  2.174568479772E+01  0.000000000000E+00 -1.703928309648E+01 -9.610287778033E+00 -5.071599472285E+01 -1.247261246775E+01 -4.963498148278E+01 -1.341489773413E+01       27
 O   1.924913341335E+01  2.289341320785E+01  1.784162133314E+01  0.000000000000E+00 -1.102037852837E+01 -1.891765618980E+01  2.719553079783E+01 -1.474317766358E+01  2.934096575640E+01 -1.310677597475E+01       29
 Ca  5.289186260021E+00  9.825481167264E+00  1.472584999445E+01  0.000000000000E+00  6.153118015138E+00 -2.033150181861E+00 -4.240455220773E+00 -3.047165231361E+00 -1.523073880176E+00  1.143036796315E+01       32
 Si  1.393587905086E+01  1.976253519311E+01  1.242263854252E+01  0.000000000000E+00 -1.786246530674E+00 -2.681981445055E+01 -9.318877412889E+00 -1.685881175876E+01 -1.045403905711E+01 -2.533084550834E+00       37
 Si  1.219607578435E+01  2.172749645714E+01  1.388960173311E+01  0.000000000000E+00  1.256468738400E+01 -2.850788184553E+01 -5.067867159980E+00 -1.822405659438E+01 -4.449954227326E+00  2.238418368728E+01       38
 O   1.243013811944E+01  2.038715922808E+01  1.272041885212E+01  0.000000000000E+00 -3.132360239427E+00  1.068556907308E+01  1.292385441201E+01  6.667182649735E+00  1.262893126746E+01 -5.137507431318E+00       40
 O   1.436397340024E+01  1.847848429000E+01  1.342573320555E+01  0.000000000000E+00 -1.887427832179E+01 -1.255526847794E+01  1.586289373419E+01 -9.122159710909E+00  1.697145177550E+01 -2.428075057898E+01       41
 O   1.514477987933E+01  2.072358538305E+01  1.268201336362E+01  0.000000000000E+00  1.261805975447E+01  2.098612933706E+01 -4.230204690781E+00  1.284267986373E+01 -5.051683597038E+00  1.726611022237E+01       42
 O   1.389464488086E+01  1.899816589130E+01  1.092024396164E+01  0.000000000000E+00 -2.460740818643E+01  5.920993137116E+00  2.079922023527E+01  3.403417462637E+00  2.646440683770E+01 -3.364574099512E+01       43
 O   1.318223187143E+01  2.292469297309E+01  1.336770152131E+01  0.000000000000E+00 -1.663800371286E+01 -8.881416199681E+00  8.458315941560E+00 -5.178875066429E+00  8.340961369143E+00 -2.893448776524E+01       44
 O   1.049962169407E+01  2.163398931529E+01  1.406035095918E+01  0.000000000000E+00  1.018321429247E+01  2.385251494447E+01 -5.025239392707E+00  1.550221396945E+01 -3.752617036284E+00  2.098204636486E+01       46
 O   7.956092031925E+00  2.150076239040E+01  1.503554929932E+01  0.000000000000E+00  5.343310695065E-02  2.057446027355E+01 -1.744426311084E+01  1.438778337869E+01 -9.230667930788E+00  1.443991009301E-01       47
 O   1.631047351391E+01  1.569081343573E+01  1.113101218068E+01  0.000000000000E+00 -1.818305937018E+01  1.633381145589E+01  7.421527554409E+00  1.158715289154E+01  1.087489858460E+01 -1.749225686336E+01       48
 Ca  6.547546179348E+00  2.100565552570E+01  1.334480795410E+01  0.000000000000E+00 -5.092515558575E+00 -2.541585429682E+01  1.084591963769E+01 -1.614658938710E+01  5.321482327024E+00 -1.633766676134E+01       49
 Si  2.038164560667E+01  2.016134012479E+01  2.329587996395E+01  0.000000000000E+00  3.421704367072E+01  1.876735466365E+00  1.303313398440E+01  2.168516769119E+00  1.140273380638E+01  3.384719118482E+01       51
 Si  1.958265189755E+01  2.246025762330E+01  2.198463527524E+01  0.000000000000E+00 -1.299734660747E+01  1.072040721066E+01 -5.593638985483E+01  1.049338999050E+01 -4.982492714657E+01 -1.490726356932E+01       52
 O   1.909180779849E+01  2.106554792879E+01  2.263408971210E+01  0.000000000000E+00  2.135611812110E+01 -3.359854989173E+01  2.670644236854E+01 -3.610029964645E+01  2.252682883063E+01  2.356394609674E+01       54
 O   1.995297113283E+01  1.860027083702E+01  2.380663334536E+01  0.000000000000E+00 -1.377660409700E+01  9.287620835805E+00  2.022106308774E+01  1.188729915957E+01  1.694780955424E+01 -1.284262708109E+01       55
 O   2.164483477791E+01  1.967622429332E+01  2.242774913275E+01  0.000000000000E+00  1.208715801816E+01  8.485405873134E-01 -2.603664622109E+01  9.672005735208E-01 -2.512775144267E+01  1.098782386996E+01       56
 O   2.125595792478E+01  2.097060279243E+01  2.447504918775E+01  0.000000000000E+00 -3.837829509085E+01 -9.312543972978E+00  4.253589861306E+00 -1.086878493946E+01  3.694134644127E+00 -3.786307749804E+01       57
 O   1.676723985874E+01  2.184572213390E+01  1.884868694537E+01  0.000000000000E+00 -2.329253388891E+01  1.666785458987E+01 -2.083156080932E+01  1.438117592495E+01 -1.853114637292E+01 -3.034740526279E+01       58
 O   1.577328152729E+01  1.304675044216E+01  1.212764178401E+01  0.000000000000E+00  2.145476375321E+01 -2.076671587233E+01 -1.969215535316E+01 -1.930375630671E+01 -2.561173192582E+01  1.774614546754E+01       59
 H   3.502597050884E+00  5.567885018059E+00  1.554611923452E+01  0.000000000000E+00 -2.893223757908E+00 -5.906372162295E+00 -2.453001979611E+00 -1.649121086026E+01 -2.773845494551E-01 -5.268849321754E+00       70
 H   1.390502627193E+01  1.964669962280E+01  1.858389360112E+01  0.000000000000E+00  2.283433345058E+00  8.118930099548E+00 -2.287759171841E+01  7.679729217719E+00 -1.711769991321E+01  3.226310268079E+00       73
 H   1.475961555606E+01  7.558229935711E+00  1.533332631059E+01  0.000000000000E+00 -1.087839161289E+01  1.477626506475E+01  6.655724020228E+00  2.997650188163E+01  6.406693876851E+00 -5.570699645162E+00       83
 Si  2.432809583667E+00  2.146527785178E+01  2.026490230699E+01  0.000000000000E+00  3.378134766824E+00 -5.129168352882E+01  1.371695831269E+01 -4.842336367828E+01  9.619829468853E-01  8.140507249033E+00       89
 Si  2.755205605483E+00  2.130401376555E+01  1.710500926322E+01  0.000000000000E+00 -1.341824447951E+01  5.622064802282E+01 -2.077622032867E+01  4.513960213308E+01 -3.254538911373E+00 -6.295555234528E+01       90
 O   2.161611337395E+00  2.159908441152E+01  1.859491259871E+01  0.000000000000E+00  1.262624054803E+01 -7.534682340548E+00  1.567111162470E+01 -6.486699015203E+00  2.295519793279E+00  3.289521126203E+01       92
 O   2.743931570055E+00  1.983264778101E+01  2.074747831014E+01  0.000000000000E+00 -1.890992129022E+00  1.125751302568E+01 -1.598663131510E+01  1.177679399672E+01 -1.374371884655E+00 -2.608163529055E+01       95
 O   1.701442002227E+00  2.015773252021E+01  1.653615297030E+01  0.000000000000E+00  7.947071265058E+00 -3.234981489381E+01 -1.091924735492E+01 -2.653778082969E+01 -2.088735418012E+00  2.348597687172E+01       96
 O   4.286380878277E+00  2.132906024928E+01  1.686011941649E+01  0.000000000000E+00  6.477346426522E+00 -1.736025387658E+01  1.466058091027E+01 -1.372287152077E+01  3.731326354500E+00  3.240651000859E+01       97
 O   1.165346689337E+01  1.324787430871E+01  2.149908608312E+01  0.000000000000E+00  5.975935772570E+00 -4.840831526608E+00 -6.943677915511E+01 -7.855860591612E+00 -3.763784208955E+01  6.793553087364E+00       98
 O   4.045108365544E+00  1.222611294524E+01  1.972397040687E+01  0.000000000000E+00 -3.544591902210E+00 -4.144515123373E+00 -1.296157012679E+01 -6.686204684218E+00 -2.658235368889E+00 -1.071333003346E+01      101
 Ca  2.137831407252E+01  2.274216046185E+01  1.929215404860E+01  0.000000000000E+00 -9.459940430104E+00  4.459411348522E+00 -1.057743175860E+01  3.782914593628E+00 -1.172122395697E+01 -1.006344478293E+01      102
 O   1.637645994057E+01  4.091604740437E+00  1.158816769338E+01  0.000000000000E+00 -5.294859375091E+00  4.699183376519E+00 -1.212974816376E+01  1.433762549060E+01 -1.714182432884E+01 -1.430012698791E+00      105
 Si  5.630032443508E+00  1.597570924265E+01  1.907723629436E+01  0.000000000000E+00  2.316980238779E+01  2.123908965990E+01 -5.300527931760E+01  2.536245032786E+01 -1.564280263822E+01  6.574633980730E+01      107
 Si  7.974628732641E+00  1.708867739934E+01  2.088319103533E+01  0.000000000000E+00  1.689408361010E+00 -4.421650623209E+01  2.113204347214E+00 -5.403471111200E+01  8.069657590512E-01  3.620200443800E+00      108
 Si  7.354764974894E+00  1.982703634197E+01  1.982073900807E+01  0.000000000000E+00 -1.516693196188E+01  7.663269516100E+00  2.236831800038E+01  7.660835558444E+00  8.300080118583E+00 -4.088714081699E+01      109
 O   7.077483431771E+00  1.650641080002E+01  1.966966623352E+01  0.000000000000E+00 -3.353858815546E+00  7.681093503295E+00  1.734399761034E+00  9.153082844517E+00  6.240667953923E-01 -7.822013560097E+00      110
 O   5.915722939522E+00  1.565090675519E+01  1.747579375315E+01  0.000000000000E+00  2.782316582165E+00  2.854723154759E+01 -3.546187369742E+00  3.187582282309E+01 -1.200418262389E+00  7.361023806570E+00      111
 O   4.486869034620E+00  1.699622566225E+01  1.905670855103E+01  0.000000000000E+00 -1.205173419455E+01  4.988348536085E+01  1.746280961948E+01  5.593094966625E+01  4.112377211308E+00 -4.563037159195E+01      112
 O   5.419192613957E+00  1.453277032514E+01  1.950578496234E+01  0.000000000000E+00 -4.267081024752E+00 -6.739293384545E+01  6.802309898887E+01 -9.045433500704E+01  1.889851017688E+01 -1.144312684731E+01      113
 O   7.296864621589E+00  1.659864635202E+01  2.229671300895E+01  0.000000000000E+00  5.460990682248E+00  1.750241948387E+01 -7.909289307582E+00  2.351073791909E+01 -2.588409031737E+00  1.242246605454E+01      114
 O   1.311039758070E+01  1.290968439216E+01  3.567116442766E+01  0.000000000000E+00 -1.756158008374E+01  1.508003163529E+01  2.858518532934E+01  4.166812074532E+01  1.050605301505E+01 -1.729272166715E+01      115
 O   8.241380698420E+00  1.866478529858E+01  2.062826239299E+01  0.000000000000E+00  1.746313167244E+00  7.826194907014E+00 -5.613411921956E+00  8.649486157914E+00 -2.242664155834E+00  3.954987825881E+00      117
 O   5.684979755410E+00  1.970009714480E+01  2.006664540009E+01  0.000000000000E+00  6.501276359718E+00 -5.973406582422E+00 -7.496169842169E+00 -6.084550286173E+00 -2.123701941514E+00  2.252880069270E+01      118
 O   7.164396170426E+00  9.636560635182E+00  2.180626431222E+01  0.000000000000E+00 -3.153574396769E+00  1.496536933342E+01  5.245378201269E+00  3.386465478391E+01  1.723356507081E+00 -4.241754666983E+00      119
 Ca  2.329550553797E+01  1.988879867952E+01  2.093102554974E+01  0.000000000000E+00 -2.016682071035E+01 -1.657901983688E+01 -1.104846074909E+01 -1.744780533943E+01 -1.229655364735E+01 -1.721764897784E+01      120
 Ca  2.770014115569E+00  1.244725201288E+01  1.800853797532E+01  0.000000000000E+00  2.101752933809E-01 -3.883802562088E+00 -1.019184662060E+01 -5.619039917856E+00 -1.493282241233E+00  2.071873851295E+00      121
 Si  1.509819966930E+00  1.689535776276E+01  1.353921161493E+01  0.000000000000E+00  4.358877270882E+00  3.723998857860E+01  1.251379336021E+01  2.984252201008E+01 -5.827915447463E+00  6.341781456658E+01      125
 Si  2.411138397365E+00  1.908209683540E+01  1.527202610924E+01  0.000000000000E+00  2.200109151846E+00  1.886596167545E+01 -6.796805412733E+00  1.509904607281E+01 -1.032058187205E+00  1.801900552395E+01      126
 Si  3.077584699646E+00  2.121883531792E+01  1.270517865478E+01  0.000000000000E+00  8.404944547988E-02 -4.934854384141E+01  1.140987552619E+01 -2.954837324784E+01  1.924154870204E+00  1.956290254791E+01      127
 O   1.212564307888E+00  1.806332743797E+01  1.473569191999E+01  0.000000000000E+00  2.036914067304E+01  2.603108193746E+01  6.675588938907E+00  2.123562256688E+01  2.057573048285E+00 -1.794689654189E+00      128
 O   2.410966425793E+00  1.735144547869E+01  1.227090535910E+01  0.000000000000E+00  1.007805038275E+01 -1.415681738235E+01  1.261812912948E+01 -1.001167116010E+01  5.587910122603E+00  1.764798905446E+01      129
 O   2.002438002330E+00  1.580562066395E+01  1.456909223200E+01  0.000000000000E+00  2.721669532531E+00 -2.502161180691E+01  2.474879057798E+01 -2.306408447721E+01  3.506204737175E+00  4.412208632067E+00      131
 O   3.800584950092E+00  1.818685220344E+01  1.547202828190E+01  0.000000000000E+00 -5.097280135205E+00  1.313383078024E+01  1.490181811625E+01  1.117329150798E+01  3.660253875800E+00 -2.438638984074E+01      132
 O   2.548208687113E+00  4.589865823767E+00  9.949767328548E+00  0.000000000000E+00 -1.264721962390E+00  1.203218112082E+01  4.034104112669E+01  2.640763160866E+01  1.033855022370E+01 -7.046062228272E+00      133
 O   2.748150457292E+00  2.031815412278E+01  1.424836267683E+01  0.000000000000E+00  1.680419088557E+00  2.689981507833E+01 -3.032889715682E+01  1.886383570376E+01 -5.346334581747E+00  2.861428152921E+00      134
 O   1.816590734374E+00  2.126209185103E+01  1.164571280286E+01  0.000000000000E+00  1.011208170030E+01  1.500907476419E+01  1.930330616453E+01  8.220798563240E+00  3.979464415862E+00 -2.253855665605E+01      135
 O   8.089500451667E+00  1.481381997575E+01  1.346801059132E+01  0.000000000000E+00 -8.459756320152E+00  2.335633499440E+01 -2.409069754060E+01  2.123445320612E+01 -1.446996995691E+01 -1.549184747738E+01      136
 Si  8.530269816210E+00  1.400804876945E+01  2.525667622163E+01  0.000000000000E+00  1.418686667177E+01  1.518773722658E+01  5.182375014913E+01  2.738366834556E+01  1.750311750369E+01  2.329707318825E+01      139
 Si  8.063495222023E+00  1.679515574294E+01  2.381816642996E+01  0.000000000000E+00 -2.968277169910E+01 -3.683707151209E+01 -3.116285218105E+01 -5.224074807619E+01 -1.054999386310E+01 -6.182514652045E+01      140
 O   7.962770533356E+00  1.501851199368E+01  2.413917760677E+01  0.000000000000E+00  1.075412493197E+00  2.025686608517E+01  1.856584605309E+01  3.255875737837E+01  6.124300267666E+00  2.028326115839E+00      142
 O   7.932958609202E+00  1.249591534377E+01  2.546320718080E+01  0.000000000000E+00  3.641581382317E+00  3.568112896287E+00 -2.522213015755E+00  7.270823739051E+00 -7.857852043343E-01  5.736181784446E+00      143
 O   7.102079373363E+00  1.793495247890E+01  2.451099374471E+01  0.000000000000E+00  4.657477587969E-02 -1.457384219535E+01  1.986676298048E+01 -1.991749659259E+01  5.756409921554E+00  1.176157500084E-01      148
 O   1.298088760645E+01  1.580524149048E+01  1.218476907141E+00  0.000000000000E+00 -2.824957516522E+01  1.082542182603E+00  2.129949865538E+01 -5.208128045662E+00  1.171708018815E+01 -3.439605757529E+01      150
 Ca  4.562504244969E+00  1.181690804776E+01  6.959237188498E+00  0.000000000000E+00 -6.106157656880E+00 -1.590679172214E+01  1.463997915418E+01 -9.367859685035E+00  9.598029960465E+00 -1.581497784600E+01      151
 Ca  1.220724114632E+01  2.202257054091E+01  2.118029919728E+00  0.000000000000E+00  8.430558440102E+00  7.347335965614E+00 -2.808648604029E+01 -2.912283813332E+00 -2.098916553197E+00  1.520921604817E+01      152
 H   6.730424203633E+00  1.849218275292E+01  1.497224349291E+01  0.000000000000E+00 -7.013760302318E-01 -7.574671765919E+00 -6.517319315413E+00 -6.132852544964E+00 -2.929709477676E+00 -1.927066309218E+00      155
 H   1.357029307563E+01  1.336682179341E+01  3.642877178878E+01  0.000000000000E+00 -1.887028774662E+01 -9.300431524475E+00 -4.824837399407E+01 -2.534658595578E+01 -1.797328164997E+01 -1.858734900519E+01      156
 H   1.651678594593E+01  1.258174031314E+01  1.151727361676E+01  0.000000000000E+00 -3.668890408047E+01  2.216170066997E+01  2.526690483443E+01  2.028673014036E+01  3.623496953821E+01 -2.794794732009E+01      159
 H   1.614989453400E+01  3.203443681052E+00  1.128012894603E+01  0.000000000000E+00  6.626708152928E+00 -2.408747700374E+00  1.354604845488E+00 -6.646256600540E+00  1.939403839667E+00  1.118051492608E+00      160
 H   1.558169436296E+01  1.741515965873E+01  1.468952033861E+01  0.000000000000E+00  2.849011631983E+00  3.088496294152E+00  2.117568178734E+01  2.605117036980E+00  2.246179547948E+01  3.184248855406E+00      164
 H   1.900675328454E+01  5.721536108814E+00  6.056951615614E+00  0.000000000000E+00  2.417493077391E+01  7.524839308499E+00 -1.636599098294E+01  7.965970456194E+00 -5.135658539319E+01  7.277294405850E+00      168
 H   5.678857079870E+00  2.132483581629E+01  3.236990196240E+01  0.000000000000E+00  3.914184638122E+00 -3.144261573323E+01  3.441373418026E+01 -4.772812309057E+01  6.037419520806E+00  1.469826473684E+01      169
 Si  1.180147926152E+01  4.280464245347E-01  1.930295877385E+01  0.000000000000E+00 -4.757404783488E+01 -1.622384861597E+02 -2.508971502542E+00  4.887100612778E+00 -1.533939718875E+00 -1.716980456706E+02      177
 Si  1.063133383482E+01  3.160374981005E+00  1.873517431474E+01  0.000000000000E+00  5.342005808177E+01 -3.188281201179E+00 -4.544041796951E+01 -1.993090966464E+01 -2.578530868791E+01  1.573700118843E+01      178
 Si  8.096353316338E+00  3.708570483466E+00  1.995386369387E+01  0.000000000000E+00  6.384618923379E+00  1.184267630271E+01 -1.503863869906E+01  6.371920117696E+01 -6.101982762454E+00  2.924502966001E+00      179
 O   1.074312267941E+01  1.511167517562E+00  1.865514230620E+01  0.000000000000E+00 -1.932989092647E+01  4.470075558283E+01  2.736331083103E+00  3.651202448229E+01  1.575798245585E+00  5.320532061932E+00      180
 O   1.216884774524E+01  5.053692981854E-01  2.083024168485E+01  0.000000000000E+00  8.092999177067E+00  1.911693458474E+01  1.887326446363E+01  1.080548698651E+01  1.102559851145E+01 -6.499456561612E+00      182
 O   1.140683666648E+01  3.879888908575E+00  1.731643564303E+01  0.000000000000E+00 -1.694616300732E+01 -6.108916025712E+00  1.877969783924E+01 -2.699260883244E+01  1.237072976876E+01 -5.778466126540E+00      184
 O   1.170460430721E+01  3.682253827099E+00  1.973900451153E+01  0.000000000000E+00  9.036905025270E+00  3.043409806747E+00  2.668736655196E+01  1.568108054752E+01  1.582476286024E+01  2.812527053453E+00      185
 O   9.131598345028E+00  3.464593821763E+00  1.864940587507E+01  0.000000000000E+00 -3.077114794607E+01  2.829789568140E+00  2.311090515432E+00  1.657619402175E+01  1.131615155319E+00 -1.159262609966E+01      187
 O   6.757963588096E+00  4.051074214553E+00  1.925571304316E+01  0.000000000000E+00 -1.131948721846E+01  3.509638084339E+00  4.762752220348E-01  1.504059815317E+01  1.671530210909E-01 -6.617375998107E+00      188
 Ca  1.319298620447E+01  2.425556962175E+00  2.075415357263E+01  0.000000000000E+00  1.087428629494E+01 -1.524692253893E+00  2.289180858508E+01  2.436434325865E+01  1.455184928653E+01  2.229350238046E+00      190
 O   1.326549385525E+01  1.791249767588E+01  8.225509719660E+00  0.000000000000E+00  4.702949602478E+00 -1.279523299021E+00 -9.603890700037E+00 -5.875635839887E-01 -1.548844477849E+01  6.350428769813E+00      193
 O   5.840497740026E+00  1.139072953835E+01  1.305385427201E+01  0.000000000000E+00  1.542210482531E+01 -1.996903135070E+01 -4.906583189599E+00 -2.288464705684E+01 -2.195281748438E+00  3.007774898590E+01      194
 Si  1.838724805445E+01  1.751405306704E+00  1.972467689830E+01  0.000000000000E+00 -7.048948263514E+00  6.649692326214E+00  5.048960355237E+01  2.452811690513E+01  4.706616333818E+01 -2.354859903849E+00      196
 Si  1.608656340648E+01  3.812786926209E+00  1.984241990820E+01  0.000000000000E+00 -3.577974163741E+01  6.232076385508E+00 -6.609273434681E+01  3.277826515604E+01 -5.358242425554E+01 -8.466087280203E+00      197
 O   1.974408429354E+01  2.770612290814E+00  2.026743350257E+01  0.000000000000E+00 -2.775478131159E+01 -4.304609130140E+00 -1.960748078901E+01 -3.328110815575E+01 -1.910117299426E+01 -3.555079719369E+00      202
 O   1.702862363938E+01  2.652950103530E+00  1.953359710417E+01  0.000000000000E+00  7.349427666289E+01 -6.890717975395E+00 -2.119963950138E+01 -6.954034404481E+01 -1.848101404131E+01  1.025332445714E+01      205
 O   1.603317463056E+01  4.283982925318E+00  2.126109050837E+01  0.000000000000E+00  1.740045320085E+00  4.344334293051E+00  7.459714364337E+01  2.156060988416E+01  5.625435960137E+01  4.649312823124E-01      206
 Ca  1.338518659562E+01  5.248965356043E+00  1.865217606275E+01  0.000000000000E+00 -1.213957287570E+01 -5.775818660215E+00 -5.285826564034E+00 -2.052434703780E+01 -3.793218262239E+00 -4.760501245649E+00      209
 O   2.223205937052E+01  1.858122679371E+01  1.452217425870E+01  0.000000000000E+00  2.384590391952E+01 -1.964029632665E+01  4.999793513377E+01 -1.534989099023E+01  7.654205510109E+01  1.993005422687E+01      210
 O   1.445106246431E+01  1.763140031972E+01  4.326521169922E+00  0.000000000000E+00 -2.019414078058E+01 -1.535413013207E+01  6.614825426720E+00 -3.699802415605E+00  2.062981043587E+01 -2.463839465744E+01      212
 Si  1.391872637409E+01  3.534664112728E+00  1.457494924588E+01  0.000000000000E+00  2.615865236364E+01 -7.338162599348E+00  7.091078798899E+01 -2.963630653015E+01  6.771809893393E+01  6.553454946424E+00      213
 Si  1.156040202002E+01  4.716918776552E+00  1.596801591225E+01  0.000000000000E+00 -9.534678672132E+00 -4.482483593540E+00 -8.100572876360E-01 -1.517439089769E+01 -5.864590789352E-01 -3.890375505893E+00      214
 Si  1.031937863843E+01  6.102580643534E+00  1.371603885067E+01  0.000000000000E+00  2.732310916309E+01 -1.929613411389E+01 -1.939793269311E+01 -4.336960716024E+01 -1.459419985919E+01  1.615809274396E+01      215
 O   1.233423198727E+01  3.704725814178E+00  1.495960673372E+01  0.000000000000E+00 -5.406295393795E+00 -1.129733500663E+00 -1.281813738378E+00 -1.461436014963E+00 -1.056858532115E+00 -1.768641287846E+00      216
 O   1.471851516003E+01  3.999483459464E+00  1.620070344351E+01  0.000000000000E+00 -8.742065041583E+00  1.380828500702E+00 -3.386758887582E+01  5.209228293515E+00 -3.076907259246E+01 -2.362610726587E+00      217
 O   1.424502093516E+01  4.466090366496E+00  1.341092380045E+01  0.000000000000E+00  2.805892725580E+01  6.990074838532E-01 -1.612840725442E-01  3.472761699154E+00 -1.713151923079E-01  8.868332028544E+00      218
 O   1.453959184974E+01  1.915880324393E+00  1.477045198886E+01  0.000000000000E+00 -2.087014728179E+01  1.733578956015E+01 -2.717062462532E+01  3.450390123429E+01 -2.674595148834E+01 -7.196472091467E+00      219
 O   1.229484119750E+01  5.984383516915E+00  1.663942130563E+01  0.000000000000E+00  1.271735119636E+01  1.197590668206E+01  3.686372342759E-02  3.329869421577E+01  2.723854496895E-02  6.190035776452E+00      220
 O   1.019865465639E+01  5.425942352312E+00  1.531596517440E+01  0.000000000000E+00  4.640545141231E+00 -1.909881245492E+00 -1.083194522290E+01 -5.391077299361E+00 -7.212817953511E+00  2.468887443291E+00      222
 O   1.172985221559E+01  5.873479993810E+00  1.301133746409E+01  0.000000000000E+00  1.858549026672E+00  2.871196066887E+00  3.615321512482E+00  6.360471303417E+00  3.259248879703E+00  9.306298429886E-01      223
 O   2.117199003466E+01  2.157098499552E+01  1.262792269039E+01  0.000000000000E+00 -2.423036827015E+01  5.714647225552E+00  9.813043216102E-02  3.345425504774E+00  1.645255979744E-01 -2.468699964131E+01      224
 Ca  1.542006266450E+01  8.229921740917E+00  6.467324002233E+00  0.000000000000E+00  3.545698356913E+00 -4.159165532767E+00  9.863199373201E-01 -3.268399375609E+00  2.351685988744E+00  1.892393087447E+00      225
 Ca  1.702400327066E+01  4.786282063790E+00  1.605101924616E+01  0.000000000000E+00 -9.267764570073E+00  1.310383689392E+00  1.408497516362E+01  5.673095857168E+00  1.493878111883E+01 -2.498494151627E+00      226
 Si  2.138489510895E+01  2.639817691669E+00  2.023331567082E+01  0.000000000000E+00  2.716275237632E+01  2.099859064856E+00 -3.573269031955E+01  6.099409762461E+00 -3.776641687779E+01  3.326502766024E+00      228
 Si  2.287611680979E+01  5.114281747341E+00  2.096017213366E+01  0.000000000000E+00  3.409993748715E+01 -5.865147187418E+00  7.428716754293E-01 -2.403748966342E+01  8.107767013285E-01  7.623526725539E+00      229
 O   2.181142650482E+01  1.157747254802E+00  2.076078530523E+01  0.000000000000E+00  3.929725550416E+01  7.373830689884E+00  4.050774403252E+00 -1.387055788769E+01  4.255771970335E+00  3.361466319145E+00      230
 O   2.212098549234E+01  3.682739505041E+00  2.141545681781E+01  0.000000000000E+00 -2.647010751883E+01 -2.441172977744E+00 -1.399426977584E+01 -1.398366857592E+01 -1.445530867358E+01 -4.460589085185E+00      236
 O   2.332009431427E+01  5.445560920259E+00  2.249551029858E+01  0.000000000000E+00  1.531683328201E+01 -6.530620420831E+00  9.077479056392E+00 -2.697787079866E+01  9.410218524549E+00  3.576690026145E+00      237
 H   1.481519997035E+01  1.812988071988E+01  3.638099534194E+00  0.000000000000E+00  1.473141464912E+01  2.899302890369E+01 -9.299224565132E+00  5.842888217105E+00 -3.929310400955E+01  1.802734967859E+01      243
 H   1.798964443034E+01  1.851302763861E+01  7.177020590318E+00  0.000000000000E+00  1.134343297080E+01 -3.776516600329E+00  8.388120912406E+00 -1.464057523671E+00  2.102534202792E+01  1.167345407623E+01      247
 H   1.634745308536E+01  9.062779712238E+00  9.480974206054E+00  0.000000000000E+00  2.644432159358E+01 -1.723100430526E+01 -1.731021070617E+01 -1.802611478484E+01 -2.984691776042E+01  1.466033026618E+01      248
 H   6.122167690658E+00  1.130376900699E+01  9.191901171784E+00  0.000000000000E+00 -6.181126869470E+00 -2.227075646687E+01  3.373471685362E+00 -1.810994123621E+01  2.246864818441E+00 -1.141262929502E+01      249