     8448
Lattice="     49.70      0.00      0.00      0.00     49.70      0.00      0.00      0.00     49.70" pbc="T T T" config_type=md Properties=species:S:1:pos:R:3:charge:R:1:forces:R:3:id:I:1
 Si  1.090809937537E+01  1.755640698705E+01  1.581602832456E+01  0.000000000000E+00 -5.765350755552E+00  2.660399431266E+01  6.539586153743E+00  2.396672211495E+01  4.510263523495E+00 -9.279237455070E+00        1
 Si  1.223294683078E+01  2.012199499953E+01  1.721283944823E+01  0.000000000000E+00  3.207141770476E+01  4.479102497377E+01  1.118735620053E+01  3.831532219411E+01  7.950712256956E+00  5.275432940323E+01        2
 Si  1.093454731584E+01  2.242135061979E+01  1.810526033879E+01  0.000000000000E+00  1.541283539618E+01 -5.213800789651E+01 -2.550123578963E+01 -4.210148721723E+01 -1.540129576357E+01  3.160410545412E+01        3
 O   1.138302807542E+01  1.928753066129E+01  1.625402427266E+01  0.000000000000E+00 -2.974343346125E+01 -7.069219283503E+01 -2.926788438346E+01 -5.957385828215E+01 -2.049690243206E+01 -5.039760782940E+01        4
 O   9.306148678794E+00  1.765254278514E+01  1.592129708367E+01  0.000000000000E+00  2.154712054975E+00 -3.040053011682E+01 -1.157921849721E+01 -2.741904536827E+01 -6.768162691326E+00  4.087206002499E+00        5
 O   1.141715439644E+01  1.722637818278E+01  1.437130454534E+01  0.000000000000E+00  4.524662724421E+00 -3.377094679969E-01 -1.010527579140E+01 -2.817380160201E-01 -8.028045997143E+00  6.826880721237E+00        6
 O   1.154097983891E+01  1.676426409874E+01  1.705009829828E+01  0.000000000000E+00  1.237242322903E+01 -9.531372158062E+00  5.481644261616E+00 -9.693884041391E+00  3.710450508884E+00  1.797200700876E+01        7
 O   1.257270426412E+01  2.139965662780E+01  1.614381644050E+01  0.000000000000E+00  1.163282271208E+01  2.245712651484E+01 -3.132585943726E+01  1.694156754673E+01 -2.439638532657E+01  1.979990990174E+01        8
 O   1.374922764016E+01  1.965402873921E+01  1.762879967761E+01  0.000000000000E+00  1.058193546456E+01 -8.938753208316E+00 -7.273597226451E+00 -8.017668630080E+00 -5.672895821506E+00  1.512649795174E+01        9
 O   1.177402261977E+01  2.086902277173E+01  1.854705750705E+01  0.000000000000E+00 -1.903733568484E+01  4.016402025371E+01 -5.907165338662E+00  3.569522164540E+01 -3.749980194416E+00 -3.374297848322E+01       11
 O   1.937152706526E+01  1.788903935131E+01  2.111732814484E+01  0.000000000000E+00 -4.241432518387E+01 -6.725226157452E+00  2.933086992587E+01 -7.938872782722E+00  2.690604307133E+01 -3.916839027288E+01       13
 Ca  3.707762753734E+00  1.564209183950E+01  1.694166935516E+01  0.000000000000E+00  7.355596113803E-01  1.096612976797E+01  2.061313175499E+01  1.187721863169E+01  4.755863030097E+00  6.011844012452E+00       14
 Ca  2.140360158536E+01  1.368702532920E+01  1.815836180078E+01  0.000000000000E+00 -2.477065177891E+00  1.978684258666E+00 -1.549782271230E+01  2.625089367061E+00 -1.826757426764E+01 -1.584016301960E+00       15
 O   6.363110178501E+00  4.247409172053E+00  1.633324140765E+01  0.000000000000E+00 -1.623001753669E-01 -6.738898495256E+00 -6.221045738424E+01 -2.801381565561E+01 -2.423597280608E+01 -1.084758260008E-01       16
 O   9.684478030228E+00  1.660749755867E+01  1.960146209910E+01  0.000000000000E+00 -1.304516164295E+01  8.907700760434E+00  2.404407038612E+01  1.051356221664E+01  1.187943380113E+01 -2.237059028494E+01       18
 Si  2.058005507658E+01  2.001322643259E+01  1.802795187963E+01  0.000000000000E+00  1.006676541459E+02 -6.456701785221E+01 -2.074558928485E+01 -5.816209069393E+01 -2.368241123169E+01  9.789500316514E+01       19
 Si  1.817500975589E+01  2.158920434433E+01  1.864123542915E+01  0.000000000000E+00 -2.889433564064E+01  3.593968800290E+01 -1.112399666223E+01  3.103218509711E+01 -1.084578050789E+01 -3.432216680584E+01       20
 O   1.908850136086E+01  2.035230008840E+01  1.823447300922E+01  0.000000000000E+00 -5.055965436898E+01 -8.737957146594E+00  1.079883823481E+01 -7.828699609050E+00  1.130461177774E+01 -5.390707414009E+01       22
 O   2.159641781031E+01  2.124317343802E+01  1.820902574158E+01  0.000000000000E+00 -1.102447301397E+01 -2.038662893723E+01 -4.920831799697E+00 -1.747482089647E+01 -5.836245224138E+00 -1.084414991206E+01       23
 O   2.089543494096E+01  1.918123961904E+01  1.654346302461E+01  0.000000000000E+00 -2.086809129255E+01  2.466806744539E+01  2.977112856485E+01  2.127575014841E+01  3.760280898384E+01 -1.915613915697E+01       24
 O   2.087875216036E+01  1.883491183747E+01  1.925949671250E+01  0.000000000000E+00  9.504351335078E+00 -1.066539520764E+01  4.685736758196E+00 -1.090581924203E+01  5.079693302659E+00  8.573961609085E+00       25
 O   1.846408864566E+01  2.250623609852E+01  1.995786322722E+01  0.000000000000E+00 -7.073887224230E-01 -1.292530100855E+01 -2.339464702197E+01 -1.146177390880E+01 -2.164364148254E+01 -8.622498464892E-01       26
 O   2.195315851853E+01  1.713565976420E+01  2.120579131261E+01  0.000000000000E+00 -6.494028245918E+00  5.306397802020E+00 -9.547801202503E+00  6.566794973743E+00 -9.884299539310E+00 -5.068949801791E+00       27
 O   1.835132585611E+01  2.258325077759E+01  1.732416146055E+01  0.000000000000E+00 -1.115618986606E+01 -4.053966063458E+00  1.574901924947E+01 -3.109896061051E+00  1.668279211201E+01 -1.372887362161E+01       29
 Ca  4.374492809958E+00  1.055455306738E+01  1.452980446562E+01  0.000000000000E+00  3.581443482510E+00  2.715963260092E+01  3.754284084442E+01  3.738899681778E+01  1.130303492576E+01  8.641124111101E+00       32
 Si  1.334303385315E+01  1.946116156425E+01  1.223170657531E+01  0.000000000000E+00  1.119535716756E+01  4.568140827957E+01 -6.866785976301E-01  2.871162546890E+01 -7.490676560956E-01  1.632871931565E+01       37
 Si  1.234897070307E+01  2.177319564156E+01  1.450629449504E+01  0.000000000000E+00  1.272602267532E+01 -5.574910802565E+01 -1.592921649628E+01 -3.714259459978E+01 -1.356028087687E+01  2.243799812237E+01       38
 O   1.306381364627E+01  2.056140415805E+01  1.344471464919E+01  0.000000000000E+00 -2.077396831696E+01  1.760896326758E+01  2.632633243877E+01  1.151416919686E+01  2.558048347948E+01 -3.269657468311E+01       40
 O   1.392231224560E+01  1.802530313572E+01  1.267788447644E+01  0.000000000000E+00  4.499969634968E+01 -2.964864939798E+01  1.386602657796E+01 -2.085302805284E+01  1.522707924834E+01  5.826138312438E+01       41
 O   1.471671396176E+01  2.030389945377E+01  1.154950637383E+01  0.000000000000E+00 -1.468488733410E+01 -3.240390103352E+01  2.279286146418E+00 -1.843237366180E+01  2.904332113263E+00 -2.025998987928E+01       42
 O   1.193206290138E+01  1.910043320665E+01  1.147702461815E+01  0.000000000000E+00  5.585746559465E+00 -2.113905857379E+00  6.770529603435E-01 -1.270198916595E+00  7.038965915966E-01  8.941469714847E+00       43
 O   1.303747875628E+01  2.307194734148E+01  1.385586666400E+01  0.000000000000E+00 -1.483840317577E+01  2.222968667866E+01  5.703841558943E+00  1.335004670578E+01  5.366947803209E+00 -2.625897714603E+01       44
 O   1.078273931069E+01  2.221185526824E+01  1.415354072932E+01  0.000000000000E+00 -1.159221378328E+00 -2.290235289437E+01  2.147146624953E+00 -1.459353037256E+01  1.635783070926E+00 -2.387932856149E+00       46
 O   8.152331408527E+00  2.115030312849E+01  1.490014589310E+01  0.000000000000E+00  1.779199247510E+01  2.635227546247E+01  5.733166736391E+00  1.856487571930E+01  3.136793128786E+00  4.615931507820E+01       47
 O   1.756241531563E+01  1.608036241104E+01  8.801670656262E+00  0.000000000000E+00  1.944685067443E+01  2.114661295179E+01 -6.070414737692E+00  1.157470944618E+01 -1.211260326875E+01  1.780577448934E+01       48
 Ca  7.147436784261E+00  2.093052329560E+01  1.304032358455E+01  0.000000000000E+00 -3.615562038943E+00 -9.091913583582E+00 -5.509681541925E+00 -5.664526082707E+00 -3.019871421670E+00 -1.058779640408E+01       49
 Si  2.083033995068E+01  2.067193923075E+01  2.288888037134E+01  0.000000000000E+00  5.308147842876E+01  9.868711579681E+00 -1.234866817712E+01  1.092707153621E+01 -1.123807507814E+01  5.267782950041E+01       51
 Si  1.966941877046E+01  2.280236061621E+01  2.092595742861E+01  0.000000000000E+00  6.383627608275E+01  4.072477036308E+01  3.129398273093E+01  3.737353448844E+01  2.941487640076E+01  7.400410782959E+01       52
 O   1.983105076856E+01  2.142482755980E+01  2.187370169353E+01  0.000000000000E+00 -2.088201379764E+01  1.414330685537E+01 -9.435060010106E+00  1.443962497486E+01 -8.553977588540E+00 -2.256025411548E+01       54
 O   2.037991302065E+01  1.930424181096E+01  2.368863975566E+01  0.000000000000E+00 -5.556306394905E+00  5.069274429185E+00  1.812840148257E+01  6.220612907333E+00  1.559630477854E+01 -5.263039254109E+00       55
 O   2.213713260889E+01  2.009771842686E+01  2.207034941392E+01  0.000000000000E+00 -9.250487228556E+00  2.323437794294E+00 -1.045851791202E+01  2.551487829237E+00 -1.049016459000E+01 -8.398273205271E+00       56
 O   2.155207230472E+01  2.184314774942E+01  2.375196766075E+01  0.000000000000E+00 -1.673840229072E+01  1.274614384975E+01  2.944662462381E+01  1.385999856758E+01  2.671929299024E+01 -1.696446583678E+01       57
 O   1.663119644968E+01  2.129016679746E+01  1.877559875242E+01  0.000000000000E+00 -2.017796678264E+01 -8.682684905418E+00 -1.090389208779E+01 -7.657178519487E+00 -9.658534663498E+00 -2.583050953285E+01       58
 O   1.568745874299E+01  1.498137881134E+01  1.258619931403E+01  0.000000000000E+00 -4.560185026584E+01  9.040777542668E+01  1.781879048318E+01  7.595364187688E+01  2.220936865694E+01 -4.354934757266E+01       59
 H   3.583036433013E+00  8.035649537475E+00  1.580234852374E+01  0.000000000000E+00  1.369116806901E+00 -1.537802134130E+01  1.013474181293E+01 -3.024134535826E+01  2.286421840792E+00  2.520523331783E+00       70
 H   1.441979305998E+01  1.936489096071E+01  1.696390630044E+01  0.000000000000E+00 -6.845123522774E+00 -5.377432980002E+00  5.556574929785E+00 -4.710703994911E+00  4.723243526031E+00 -9.192577874024E+00       73
 H   1.869751745146E+01  1.133164679003E+01  1.694325058076E+01  0.000000000000E+00 -3.773412462137E+01 -1.596451576967E+01  1.111171674138E+01 -2.387038672296E+01  1.226219943436E+01 -2.286879920023E+01       83
 Si  1.977017302797E+00  2.079067247217E+01  2.156253817385E+01  0.000000000000E+00  1.937619740133E+01  7.329099128433E+01 -1.323055462003E+01  7.601196158916E+01  4.024503244894E+00  1.365920728673E+01       89
 Si  2.752886947511E+00  2.053254484758E+01  1.860355201486E+01  0.000000000000E+00 -2.453325630897E+00  2.176586376974E+00  5.753705567962E+00  1.972100301227E+00  7.645430050122E-01 -3.649651588034E+01       90
 O   1.662979726574E+00  2.021666854700E+01  1.996048793448E+01  0.000000000000E+00  1.535503801991E+01  7.758778713815E+00 -2.268106625312E+01  7.660461393199E+00 -7.665969211171E+00  2.524879609937E+01       92
 O   1.008777936127E+00  1.986648790695E+01  2.233741798426E+01  0.000000000000E+00  2.893071813767E+01 -3.117049136846E+01  3.859581661955E+01 -3.504737715761E+01 -1.551630670405E+01 -2.613681286536E+01       95
 O   2.129536981656E+00  2.009899917771E+01  1.713985619228E+01  0.000000000000E+00  1.329851308498E+00 -2.936826489560E+01 -8.399501844198E+00 -2.504442298229E+01 -6.752421340104E-01 -2.884055065214E+00       96
 O   4.260596664092E+00  2.008199534720E+01  1.890187555326E+01  0.000000000000E+00 -4.592509047839E+00 -1.612721945176E+01 -1.391598279986E+01 -1.517950232668E+01 -3.136746389405E+00 -2.164643889152E+01       97
 O   1.109190262744E+01  1.438105005139E+01  2.082554496810E+01  0.000000000000E+00  7.046649162391E-01 -1.658695489381E+01  1.613653471944E+01 -2.401996890288E+01  8.594486825027E+00  9.136233674478E-01       98
 O   3.498756384851E+00  1.225189021295E+01  2.082807702756E+01  0.000000000000E+00  1.580097502690E+00 -1.227154888705E+01  5.914610819688E+01 -2.086149655476E+01  9.835558734774E+00  6.293880896358E+00      101
 Ca  2.209948016126E+01  2.325984801516E+01  1.850047531113E+01  0.000000000000E+00  1.324090280077E+01  1.782870130526E+01 -1.238348199114E+01  1.418063643892E+01 -1.479251262404E+01  1.393613716170E+01      102
 O   1.584593448420E+01  4.588389637513E+00  1.197808448989E+01  0.000000000000E+00 -6.995142061648E+01  1.763129837883E+01  1.452772941793E+00  4.602686308973E+01  1.921888668884E+00 -2.025531367721E+01      105
 Si  5.708244675762E+00  1.580719491747E+01  2.017770981077E+01  0.000000000000E+00 -1.648705335749E+01 -1.765362902084E+01 -1.106256690435E+01 -2.253466256026E+01 -3.129584042205E+00 -4.565572795841E+01      107
 Si  8.378506233253E+00  1.673254005113E+01  2.074434032700E+01  0.000000000000E+00  2.038840218583E+01  4.733310442186E+01  8.373584979338E+00  5.868170784949E+01  3.382037357570E+00  4.071725277223E+01      108
 Si  7.466150924133E+00  1.976188078667E+01  2.006309781945E+01  0.000000000000E+00  1.612859194314E+01  1.785358520828E+01  1.065595106590E+02  1.812571537742E+01  3.965436425328E+01  4.269017790773E+01      109
 O   7.299985576113E+00  1.566392731643E+01  2.036508043888E+01  0.000000000000E+00 -8.661508254600E+00 -2.003558659653E+01 -1.565288096132E+01 -2.604878868728E+01 -5.610869330234E+00 -1.858541148281E+01      110
 O   5.357308759456E+00  1.603998275397E+01  1.855175395382E+01  0.000000000000E+00  1.315905191908E+00  6.070640858029E+00  2.146422129667E+01  7.021269116530E+00  6.198360599961E+00  3.939869350786E+00      111
 O   4.938584322361E+00  1.674253262226E+01  2.127590573785E+01  0.000000000000E+00  4.031521387547E+00 -7.148457448894E+00 -3.049301619170E+01 -9.084044229455E+00 -7.078069134230E+00  1.366745487016E+01      112
 O   5.094799768163E+00  1.413763286638E+01  2.042760009384E+01  0.000000000000E+00  5.741868967558E+00  1.744138246723E+01 -1.715034269582E-01  2.520121929120E+01 -4.277426696684E-02  1.593319445790E+01      113
 O   8.934713293581E+00  1.612021607946E+01  2.217500655010E+01  0.000000000000E+00 -7.709455388800E-01  1.451351713941E+01  3.698023391738E+01  1.996482776936E+01  1.490000856753E+01 -1.390957746923E+00      114
 O   1.139390854344E+01  1.366142848569E+01  3.464773647307E+01  0.000000000000E+00 -2.178780106786E+01  5.356969874006E+00 -2.486734147846E+01  1.358619859432E+01 -8.177625535345E+00 -2.612382616679E+01      115
 O   7.755534315181E+00  1.834838678834E+01  2.095744639989E+01  0.000000000000E+00  7.333520247729E+00 -3.127281441879E+01 -1.258890864247E+01 -3.571967059099E+01 -4.658664567448E+00  1.734996720497E+01      117
 O   6.031630695073E+00  2.018349344270E+01  2.050688450592E+01  0.000000000000E+00 -2.887358201849E+00  2.442813657266E+01 -1.383420268294E+01  2.481953764905E+01 -4.069014067943E+00 -9.661893819422E+00      118
 O   6.449993186003E+00  9.326704085819E+00  2.234765479842E+01  0.000000000000E+00 -1.497313212250E+01  1.424788722825E+01  8.188635814272E+01  3.413926961271E+01  2.363408853463E+01 -2.165118140705E+01      119
 Ca  2.330151636031E+01  1.901246302543E+01  2.065425638050E+01  0.000000000000E+00  1.240929839712E+01 -7.566891759902E+00 -4.104300120162E+00 -8.220319597910E+00 -4.630349049404E+00  1.012514908037E+01      120
 Ca  3.256119075971E+00  1.279818517284E+01  1.898967247386E+01  0.000000000000E+00 -8.060431638052E-01 -3.055664290677E+01 -5.221214013698E+01 -4.533929091225E+01 -8.700865190951E+00  1.884268717611E+01      121
 Si  9.276152278202E-01  1.733294491749E+01  1.386698283842E+01  0.000000000000E+00 -1.831678258624E+02 -3.039114702164E+01 -3.177287141979E+01 -2.431401681567E+01 -1.927220152368E+02 -1.734401174204E+01      125
 Si  2.720671409383E+00  1.912774129132E+01  1.580921093966E+01  0.000000000000E+00 -4.097641960954E+00 -1.451797148725E+01  2.200772137209E+01 -1.199920420097E+01  1.750224188291E+00 -2.539702137712E+01      126
 Si  3.320108465675E+00  2.042436283937E+01  1.331382013488E+01  0.000000000000E+00 -4.999678660808E+00  5.720490999191E+00 -2.112756412692E+01  3.728957855154E+00 -6.991347678755E+00 -4.666095587259E+00      127
 O   1.414069994130E+00  1.862234190491E+01  1.471874641044E+01  0.000000000000E+00  2.879724257841E+01  9.384453092380E+00  2.894681094491E+01  7.417294020954E+00  2.327973211558E+01  7.273984903862E+00      128
 O   2.221602183979E+00  1.676635185908E+01  1.298141239895E+01  0.000000000000E+00  1.777850490843E+01  1.637504941245E+00  3.114222753151E+00  1.267844497496E+00  4.616557762018E+00 -2.007978884185E+01      129
 O   3.304681514323E-01  1.601411689838E+01  1.485478435434E+01  0.000000000000E+00  1.172355097152E+01  8.564922315215E+00 -1.478642152824E+01  7.944869817774E+00  1.561688184716E+01  9.360597814410E+00      131
 O   3.858504536781E+00  1.808238057498E+01  1.623449256340E+01  0.000000000000E+00 -3.793798315473E+00 -2.212604330852E+01  9.894268938123E+00 -1.986492232370E+01  2.351603010491E+00 -1.777914326941E+01      132
 O   2.652432901161E+00  4.801613675784E+00  9.627601059915E+00  0.000000000000E+00 -8.066583076556E+00  3.323578683583E+00  1.503034253918E+00  6.664028349084E+00 -2.624944720523E-01 -1.517717013911E+01      133
 O   3.461723891556E+00  2.016351225229E+01  1.490946655241E+01  0.000000000000E+00  1.031961236877E+00  4.673395899619E+01 -1.564602118514E+01  3.455640018451E+01 -3.534620832795E+00  1.789967812539E+00      134
 O   1.702415689926E+00  2.050730850113E+01  1.256566988352E+01  0.000000000000E+00  6.274137062923E+01 -2.833801700435E+00 -1.795358479923E+00 -1.736386648743E+00 -1.795661580912E+01  3.910108129886E+01      135
 O   8.304114418178E+00  1.539173987295E+01  1.203353946524E+01  0.000000000000E+00  8.876007460356E-01 -1.118696553751E+01 -4.094573369005E+00 -8.746171154334E+00 -2.825586424349E+00  1.645174802037E+00      136
 Si  8.705891429486E+00  1.406958112813E+01  2.578535039659E+01  0.000000000000E+00  1.703522585953E+00 -2.096764097444E+00 -1.537733537289E+00 -3.842743892603E+00 -5.191839946799E-01  2.753060892246E+00      139
 Si  8.807704637514E+00  1.655731763187E+01  2.381343038809E+01  0.000000000000E+00  1.769181697961E+01 -2.860306361915E+01  1.809311125394E+01 -4.113812874311E+01  6.691970761933E+00  3.325827162376E+01      140
 O   8.178559154153E+00  1.524778197660E+01  2.479021087099E+01  0.000000000000E+00 -5.567383627546E+00  2.310295240136E+01 -7.399885368512E+00  3.756133597995E+01 -2.441302356615E+00 -1.037960967609E+01      142
 O   7.575569780461E+00  1.284853886407E+01  2.557453750471E+01  0.000000000000E+00 -1.255013771666E+00 -5.587244656224E+00 -7.996890438911E+00 -1.112120214760E+01 -2.368801450878E+00 -2.128565070021E+00      143
 O   8.119773959547E+00  1.802937027534E+01  2.388142309483E+01  0.000000000000E+00  4.459890440355E+00 -2.527563090794E+01 -9.557670290921E+00 -3.347970708255E+01 -3.249643961081E+00  9.902863865081E+00      148
 O   1.300862701119E+01  1.618710093706E+01  7.667047556558E-01  0.000000000000E+00  4.958509660707E+00  4.484992631949E+00  9.844332360929E+01 -2.105785702189E+01  2.235806902975E+01  6.170051328724E+00      150
 Ca  4.812394982115E+00  1.162857197764E+01  7.373268219104E+00  0.000000000000E+00 -3.344303255563E-01  2.889742294585E+00  5.268827355816E+00  1.832283883442E+00  3.438865585151E+00 -8.081105409445E-01      151
 Ca  1.193434855877E+01  2.160584015669E+01  1.112638346123E+00  0.000000000000E+00  2.124014194941E+01  1.126085255121E+01 -2.686372335975E+01  5.365696920474E+00  8.160897650786E+00  3.845296704755E+01      152
 H   7.011953084363E+00  1.812821788926E+01  1.551044800437E+01  0.000000000000E+00 -1.645550667677E+01  1.612758296305E+01 -2.863874393143E-01  1.379871085578E+01 -1.294698443176E-01 -4.254292733075E+01      155
 H   1.049809145941E+01  1.314471601963E+01  3.443021914211E+01  0.000000000000E+00  3.219598613568E+01  1.082094473709E+01  4.543485959729E+01  2.834351826743E+01  1.385350785974E+01  4.031276507370E+01      156
 H   1.614684327540E+01  1.424976204139E+01  1.242044027727E+01  0.000000000000E+00  5.279736691617E+01 -7.338276974707E+01 -1.626451890228E+01 -6.396221258830E+01 -2.114422933505E+01  4.659424149571E+01      159
 H   1.647972505765E+01  3.961330019231E+00  1.184613955503E+01  0.000000000000E+00  4.388635879411E+01 -1.360599791614E+01 -3.219533259173E+00 -4.092391418731E+01 -4.478845000826E+00  1.060240596048E+01      160
 H   1.668638787955E+01  1.672631484426E+01  1.659962944777E+01  0.000000000000E+00  2.752409954474E+00  2.241645074705E+01 -2.027610172425E+01  2.224666816330E+01 -2.038207534214E+01  2.758995884030E+00      164
 H   2.109607965727E+01  7.704926278542E+00  4.671214550261E+00  0.000000000000E+00 -4.871951756748E+01 -1.817140380546E+01  5.164720688480E+00 -1.101650527825E+01  2.331809057597E+01 -1.779384119144E+01      168
 H   4.347806731259E+00  2.081687790850E+01  3.367898891319E+01  0.000000000000E+00 -3.148908722673E+00  1.268279224322E+01 -1.331062289970E+00  2.051910095382E+01 -1.932874120362E-01 -1.723904043360E+01      169
 Si  1.274685091540E+01  8.561570279471E-01  1.981053556605E+01  0.000000000000E+00 -1.000200154900E+01 -1.099972214680E+02 -6.223364730603E+00 -3.979728810563E+01 -4.004349208465E+00 -7.070024936987E+01      177
 Si  1.125196194796E+01  3.497126832351E+00  1.916998640505E+01  0.000000000000E+00 -2.288937378790E+01  1.515297605210E+01  1.082196972569E+01  7.797227420228E+01  6.352033276530E+00 -7.663855041777E+00      178
 Si  8.159795280858E+00  4.056402966543E+00  1.991772846092E+01  0.000000000000E+00 -5.161559170493E+00 -1.575494090026E+01 -6.685299779307E+01 -8.162850554101E+01 -2.738800144673E+01 -2.230746725871E+00      179
 O   1.233016342592E+01  2.369284492927E+00  1.895010760104E+01  0.000000000000E+00  1.519426666875E+01 -1.174344007047E+01  2.122866146333E+01 -7.027008617011E+01  1.381273767237E+01  1.892376595085E+00      180
 O   1.254377163186E+01  6.072537937371E-01  2.139787946418E+01  0.000000000000E+00 -1.640972281781E+01 -6.612157046563E+00  2.240655179571E+01  2.473427761957E+01  1.313507112951E+01  8.849168680820E+00      182
 O   1.183319831648E+01  4.521551115386E+00  1.788190606589E+01  0.000000000000E+00 -1.456377894182E+01 -2.508091544198E+00 -4.491038791634E+00 -9.919042437760E+00 -2.971906488747E+00 -5.564925826259E+00      184
 O   1.149106935861E+01  4.563651210756E+00  2.037132675703E+01  0.000000000000E+00  7.508602429953E+00 -2.039559423686E+00  2.051499879816E+01 -9.104230262462E+00  1.157211196370E+01  2.982023822253E+00      185
 O   9.574519333806E+00  3.460792386422E+00  1.907965788904E+01  0.000000000000E+00  3.411161012083E+00 -2.852153186502E+00 -8.196315253134E+00 -1.769912668745E+01 -4.113060061846E+00  1.559680596215E+00      187
 O   7.037005857460E+00  4.380334182429E+00  1.879687737688E+01  0.000000000000E+00  4.185334864834E-01 -7.951665970965E-02  3.518252099199E+01 -4.423560018784E+00  1.317131571041E+01  3.611608398363E-01      188
 Ca  1.113212828116E+01  5.031867767471E+00  2.284732254886E+01  0.000000000000E+00  4.430719118917E+00  1.655008836406E-01 -1.141550473413E+01  7.514609376466E-01 -5.562089948296E+00  2.002743065667E+00      190
 O   1.566304403760E+01  1.944903573039E+01  8.201779197061E+00  0.000000000000E+00 -3.024154383650E+00 -1.016684586648E+01  1.634991044389E+01 -4.287422064690E+00  3.122363588928E+01 -3.755137668044E+00      193
 O   4.473392652361E+00  1.250828972515E+01  1.313235542035E+01  0.000000000000E+00 -1.132600336040E+01 -1.983723750100E+01  3.138486082895E+00 -2.082696029157E+01  1.069090816793E+00 -3.166923685654E+01      194
 Si  1.828185865689E+01  1.587821214520E+00  1.992205422255E+01  0.000000000000E+00 -4.874379488820E+00  4.138690307594E+00 -5.535695144363E+00  4.784133724975E+00 -5.079937794884E+00 -2.418149998843E+00      196
 Si  1.664554911481E+01  4.291133730487E+00  1.938661084013E+01  0.000000000000E+00  2.496254537872E+01 -7.064915943662E-01 -2.192893388592E+01 -3.191808613303E+00 -1.882841457146E+01  6.435210982504E+00      197
 O   1.985347996146E+01  1.487397281961E+00  2.025563258853E+01  0.000000000000E+00  1.531042594977E+01  1.444216772746E+01  2.873295465066E+00 -2.020136357163E+00  2.816249440235E+00 -5.312165609287E+00      202
 O   1.777955679364E+01  3.165020764592E+00  1.992337100837E+01  0.000000000000E+00 -2.194700977628E+00 -4.575748271270E+00  2.003880116812E-01 -2.917020568978E+01  1.788256632351E-01 -4.065736555015E-01      205
 O   1.555971286838E+01  4.989846515930E+00  2.030498515124E+01  0.000000000000E+00 -1.145815228041E+00  4.684613530733E-01  9.712234559122E-01  1.906291263211E+00  7.442486656590E-01 -3.674516472059E-01      206
 Ca  1.399903238571E+01  4.975827564676E+00  1.790793903647E+01  0.000000000000E+00  1.643025176410E+01  2.183642448269E+00  2.396748831243E+00  7.858900923064E+00  1.873591619933E+00  5.839982176611E+00      209
 O   2.331411225168E+01  1.895740897891E+01  1.509146388327E+01  0.000000000000E+00  4.600995025264E+01  1.505699383838E+01 -1.130803756350E+01  1.198645231294E+01 -1.746926998871E+01  3.741208048682E+01      210
 O   1.455589398889E+01  1.811160019071E+01  5.129961527134E+00  0.000000000000E+00 -2.012057089650E+01 -1.963841531017E+01 -1.174070253304E+01 -5.562419329836E+00 -3.331339241476E+01 -2.503561347482E+01      212
 Si  1.320928275533E+01  3.418974468107E+00  1.457432345878E+01  0.000000000000E+00 -9.094512993193E+00  9.438641885230E+00  6.341752223254E+00  4.389769071879E+01  5.747779546549E+00 -2.423508478046E+00      213
 Si  1.132981837702E+01  5.111812771725E+00  1.645683614860E+01  0.000000000000E+00 -8.624193040945E+00 -5.749574273306E+00 -3.675380894507E+01 -1.851002882253E+01 -2.530340438778E+01 -3.891082686897E+00      214
 Si  9.135805958297E+00  6.088062920922E+00  1.475067586919E+01  0.000000000000E+00  1.574185666497E+01  1.173434580240E+01  6.177127570404E+00  2.843096954095E+01  3.825793432336E+00  1.049030751156E+01      215
 O   1.167008092382E+01  4.111890189850E+00  1.517045900090E+01  0.000000000000E+00  7.322292079635E+00 -2.123516768818E+00  9.741391359384E+00 -7.507001818362E+00  7.493697156289E+00  2.528167088450E+00      216
 O   1.422894054828E+01  3.746476696652E+00  1.580427864900E+01  0.000000000000E+00 -1.651641063647E+00 -3.947802463234E+00  1.541996338417E+01 -1.399359649742E+01  1.388293304129E+01 -4.387013695209E-01      217
 O   1.367424710023E+01  4.669804982487E+00  1.352137347438E+01  0.000000000000E+00 -7.205484242164E+00 -9.823019021342E+00 -1.928164646242E+00 -2.751712704228E+01 -1.949964615104E+00 -2.431773806855E+00      218
 O   1.290243218538E+01  1.873048384610E+00  1.432759484004E+01  0.000000000000E+00  1.208108313754E+01  4.770552671955E+00 -9.224647384865E+00 -6.513497851865E+00 -8.307073772400E+00  2.292039098840E+00      219
 O   1.211435889429E+01  6.485238515037E+00  1.635977192468E+01  0.000000000000E+00  9.855403393721E+00  9.303604860818E+00  4.553964770460E+00  2.346943034515E+01  3.372196377511E+00  5.275940908462E+00      220
 O   9.694364561275E+00  5.330883589794E+00  1.611332521512E+01  0.000000000000E+00 -7.023007212814E+00 -1.921093909623E+00  1.172013076623E+01 -5.806769255628E+00  7.051258435909E+00 -3.861917268033E+00      222
 O   1.054228104927E+01  6.570347531259E+00  1.408034940651E+01  0.000000000000E+00 -2.261348923973E+00  1.598151744572E-01 -5.798649143587E+00  3.424862210276E-01 -4.341581818243E+00 -1.409358017540E+00      223
 O   2.137393962929E+01  2.048340158176E+01  1.329861217725E+01  0.000000000000E+00  8.456762816227E+00 -1.361473147515E+01 -2.040451488737E+01 -8.839207348582E+00 -3.279476561576E+01  8.104414621301E+00      224
 Ca  1.558322332720E+01  7.569896297432E+00  6.359975483429E+00  0.000000000000E+00  1.227022087246E+00 -1.005103875410E+00 -5.552027519509E-02 -8.444548980248E-01 -1.360358777808E-01  5.960531887454E-01      225
 Ca  1.629207251285E+01  4.361493677648E+00  1.577992535680E+01  0.000000000000E+00  1.080584151011E+01 -2.566737341697E+00 -3.499765455489E+00 -8.893777295428E+00 -3.613352489924E+00  2.939510256101E+00      226
 Si  2.121208951645E+01  2.377206566141E+00  1.975013013406E+01  0.000000000000E+00 -7.995983581411E+00  6.401053104712E+00  8.854759895314E+01  1.059073204743E+01  9.510213769283E+01  1.097003752014E+00      228
 Si  2.250049725275E+01  4.690827624405E+00  2.114209817217E+01  0.000000000000E+00 -3.380957873155E+01 -1.739279916740E+01  2.319261937936E+01 -7.839140461866E+01  2.468276631675E+01 -7.048509072813E+00      229
 O   2.241366680307E+01  1.701792184720E+00  2.063029859896E+01  0.000000000000E+00  3.152429122195E+01 -5.493837970448E+00 -1.167624248712E+01 -6.391875679359E+01 -1.268558510498E+01  5.781409847619E+00      230
 O   2.107336776076E+01  3.735791016038E+00  2.079827708301E+01  0.000000000000E+00  3.377991578244E+01  6.419296111039E+00 -2.161498735057E+01  3.164246579797E+01 -2.190088033565E+01  5.980050517768E+00      236
 O   2.257803092286E+01  4.112852434039E+00  2.284327483026E+01  0.000000000000E+00  4.536376978885E+01 -2.650207284935E+00 -7.113398324576E+00 -1.133695118727E+01 -7.030801342293E+00  8.301466010614E+00      237
 H   1.378693503747E+01  1.793902070525E+01  4.459494224067E+00  0.000000000000E+00  2.112244658159E+01 -6.616219570185E+00  5.758420222727E+00 -1.644738218612E+00  1.780268378884E+01  2.748370145669E+01      243
 H   1.984239764634E+01  1.778596342420E+01  6.363050813138E+00  0.000000000000E+00 -2.020015228597E+01 -3.128914489470E+01  1.503446249208E+00 -1.119390690941E+01  4.688313702458E+00 -1.810664094759E+01      247
 H   1.262922138789E+01  7.863931929007E+00  6.975295469157E+00  0.000000000000E+00 -4.565078431620E+00  8.031953637436E-01 -7.184855975433E+00  7.124330464895E-01 -1.300864417215E+01 -2.842571599170E+00      248
 H   5.734185247170E+00  8.981838781234E+00  9.766446755060E+00  0.000000000000E+00 -9.754812794345E+00  7.872763808140E-01  1.038206202978E+01  8.560488605964E-01  6.095632159723E+00 -1.527961725742E+01      249