     8448
Lattice="     49.70      0.00      0.00      0.00     49.70      0.00      0.00      0.00     49.70" pbc="T T T" config_type=md Properties=species:S:1:pos:R:3:charge:R:1:forces:R:3:id:I:1
 Si  1.080673510085E+01  1.739124315666E+01  1.607678947979E+01  0.000000000000E+00  7.927727047321E-01  4.883775527756E+01 -4.001895184005E+01  4.514653168783E+01 -2.690053334919E+01  1.275806499122E+00        1
 Si  1.236749079916E+01  2.019648592286E+01  1.716311771004E+01  0.000000000000E+00 -1.435394947986E+01 -8.301012153516E+01 -4.304291231776E+01 -7.054259302706E+01 -3.101609107695E+01 -2.344043293139E+01        2
 Si  1.093980837771E+01  2.244947142451E+01  1.793757978391E+01  0.000000000000E+00 -4.441825812811E+00  5.737719926820E+00  3.170305128454E+01  4.584553774959E+00  1.933512269881E+01 -9.115026352796E+00        3
 O   1.107311934899E+01  1.917977257812E+01  1.650952711747E+01  0.000000000000E+00  1.522992420695E+01  2.266489256297E+01  1.511967250718E+01  1.950944187992E+01  1.014092874971E+01  2.637978273918E+01        4
 O   9.282659423089E+00  1.766446886366E+01  1.632795588396E+01  0.000000000000E+00 -3.790542906215E+00 -1.929107206626E+01  3.227019274210E+00 -1.783148851423E+01  1.834603246550E+00 -7.213226737226E+00        5
 O   1.128781430059E+01  1.713716981093E+01  1.451039111874E+01  0.000000000000E+00 -5.267746607752E+00  6.022562554298E+00  1.798348553688E+01  5.099426519319E+00  1.398957778302E+01 -7.997497631873E+00        6
 O   1.172611049602E+01  1.642705511019E+01  1.693642490744E+01  0.000000000000E+00 -1.007003555607E+01 -2.601801320636E+01  6.816626106903E+01 -2.682477924098E+01  4.719562208461E+01 -1.410706722380E+01        7
 O   1.292216981963E+01  2.116753102171E+01  1.590134774705E+01  0.000000000000E+00  1.188997084458E+00  1.788892587195E+01  1.882506901323E+01  1.343841333311E+01  1.529812079611E+01  1.947670787590E+00        8
 O   1.354461765052E+01  1.903391883483E+01  1.704462819408E+01  0.000000000000E+00  1.238155064769E+01  1.353155001433E+01  7.273322743330E+00  1.211732806498E+01  5.779790235701E+00  1.739948931437E+01        9
 O   1.196408392722E+01  2.106828384535E+01  1.845293717058E+01  0.000000000000E+00 -1.157204298480E+01  3.308199378714E+01 -1.941241743853E+01  2.897530512274E+01 -1.258616930833E+01 -2.037791507962E+01       11
 O   1.899899185695E+01  1.790073573825E+01  2.111912453240E+01  0.000000000000E+00  1.604231252355E+01 -5.219893607629E+01  2.781075074941E+01 -6.158382803778E+01  2.501885086255E+01  1.511497027193E+01       13
 Ca  3.032972204178E+00  1.618259228603E+01  1.724653154983E+01  0.000000000000E+00 -1.828204391589E+00 -4.021126894395E+00 -3.591777642216E+00 -4.285499543232E+00  6.964535245514E-02  3.480979014231E+00       14
 Ca  2.119233077058E+01  1.386381505312E+01  1.835820204144E+01  0.000000000000E+00  1.494724085775E+00 -2.610590352125E+00  7.895732954300E+00 -3.456894436929E+00  9.114671690945E+00  9.778338449391E-01       15
 O   6.629004559509E+00  3.904003763461E+00  1.581678169286E+01  0.000000000000E+00  3.886765977627E+00 -2.661271112320E+00 -2.232975920535E+01 -1.142669320595E+01 -9.358672229241E+00  2.300418967566E+00       16
 O   9.701642266726E+00  1.603831815221E+01  1.983177335054E+01  0.000000000000E+00  4.381785122725E+00 -2.908743896143E+00 -1.780364630833E+01 -3.596733094806E+00 -8.709488782152E+00  7.243769862956E+00       18
 Si  2.044978427419E+01  1.956921186459E+01  1.798444699739E+01  0.000000000000E+00 -1.856484240911E+01  1.930492838182E+00  3.801743818318E+01  1.774156586754E+00  4.322893050959E+01 -1.776543602932E+01       19
 Si  1.820671344748E+01  2.124484475750E+01  1.818597624054E+01  0.000000000000E+00 -2.747025372095E+01  1.198381098399E+01  2.466173619729E+01  1.025836170203E+01  2.468985762010E+01 -3.205418031289E+01       20
 O   1.876340939826E+01  1.974287437681E+01  1.859610190761E+01  0.000000000000E+00  2.723554389798E+01  2.442055150016E+01 -1.541136232716E+01  2.300207435198E+01 -1.555001699636E+01  2.865726107387E+01       22
 O   2.144848088985E+01  2.084979429277E+01  1.792548679782E+01  0.000000000000E+00 -6.050021588987E+00  3.933353840339E+00  3.461137903081E+00  3.381677600561E+00  4.141374290622E+00 -5.881148704423E+00       23
 O   2.033041914576E+01  1.905134539305E+01  1.650657415340E+01  0.000000000000E+00  1.331845395124E+01 -1.118670657063E+01 -2.824586480986E+00 -9.692449416610E+00 -3.478918553192E+00  1.248053296429E+01       24
 O   2.093037125729E+01  1.873149764953E+01  1.939524003326E+01  0.000000000000E+00  8.174809327647E+00 -1.052561907362E+01  9.169852189167E+00 -1.089858975781E+01  9.895645032730E+00  7.315991667030E+00       25
 O   1.852144181144E+01  2.222665827430E+01  1.969595187575E+01  0.000000000000E+00 -8.067794665590E+00 -4.848136856846E+00 -3.733865336143E+01 -4.296132555828E+00 -3.511207277079E+01 -9.681757872032E+00       26
 O   2.140095275205E+01  1.692640356111E+01  2.151516277484E+01  0.000000000000E+00  1.768752132285E+01  4.831378896262E+00 -4.537339945942E+00  6.141168914277E+00 -4.513254155652E+00  1.398938296696E+01       27
 O   1.909676739268E+01  2.189562758216E+01  1.688268705350E+01  0.000000000000E+00 -2.082778687652E+01  1.112130029713E+01  1.780162256702E+01  8.575110799632E+00  2.013621672293E+01 -2.388034872245E+01       29
 Ca  4.530706920722E+00  1.064863157446E+01  1.537271659548E+01  0.000000000000E+00 -1.185617771294E+00 -1.250121117711E+00 -1.519398650511E+01 -1.804716175803E+00 -4.820422125280E+00 -3.003226158455E-01       32
 Si  1.332545738811E+01  1.966430200072E+01  1.249831214227E+01  0.000000000000E+00  1.602495363066E+01  2.314250033669E+01  9.009183961137E+00  1.470899872012E+01  9.605416764219E+00  2.364793331762E+01       37
 Si  1.229533133577E+01  2.190073917955E+01  1.461402736104E+01  0.000000000000E+00 -1.670880267176E+01  3.613096690442E+01 -5.744695657598E+01  2.410964007164E+01 -4.833228704747E+01 -2.976212021649E+01       38
 O   1.285274235511E+01  2.117581987560E+01  1.326665970609E+01  0.000000000000E+00  6.609747334533E+00 -4.861929342931E+01 -2.543160971794E+00 -3.046000697334E+01 -2.463814815650E+00  1.089003538016E+01       40
 O   1.446050355512E+01  1.872383387817E+01  1.340052057154E+01  0.000000000000E+00 -1.801810880608E+01 -2.142173653368E+01  7.787515180413E+00 -1.533139115448E+01  8.403508680931E+00 -2.333031313867E+01       41
 O   1.428026967040E+01  2.041972598831E+01  1.140766004350E+01  0.000000000000E+00 -1.346227509706E+01 -8.109722474761E+00  1.048132024735E+00 -4.530567995483E+00  1.312066445381E+00 -1.925005444618E+01       42
 O   1.220322931475E+01  1.864006926083E+01  1.189266847078E+01  0.000000000000E+00  7.310153044854E+00  5.089458894251E+01 -2.970612392455E+00  3.247157855371E+01 -3.048185890276E+00  1.116604101659E+01       43
 O   1.271671867171E+01  2.364730417565E+01  1.405403817969E+01  0.000000000000E+00 -3.490217794305E+01 -4.658393404774E+01  3.634127652158E+01 -2.768570923790E+01  3.288320294756E+01 -6.490215278947E+01       44
 O   1.063273528623E+01  2.167348149079E+01  1.436517127046E+01  0.000000000000E+00  1.039101861818E+01  3.480052824894E+01  1.418413963574E+01  2.306577043521E+01  1.049874026354E+01  2.118077273901E+01       46
 O   8.254067524129E+00  2.129689135239E+01  1.463729044794E+01  0.000000000000E+00 -5.541594112666E+00  2.201146863706E+01  8.209677240451E+00  1.512841730256E+01  4.629492769513E+00 -1.429825081894E+01       47
 O   1.836912359376E+01  1.598367639482E+01  8.987140376729E+00  0.000000000000E+00 -7.648039482150E+00  1.502983561028E+00  2.883673039600E+00  8.450824399357E-01  5.894037952891E+00 -6.654851414851E+00       48
 Ca  6.677667080059E+00  2.075712493466E+01  1.294856097327E+01  0.000000000000E+00  4.168065170192E-01  1.572165131130E+01  6.134515377462E+00  9.807367891538E+00  3.163614201822E+00  1.295617892240E+00       49
 Si  2.069000018182E+01  2.080762869532E+01  2.294628404223E+01  0.000000000000E+00 -1.639251131175E+01 -1.168886747834E+01 -1.162744406359E+00 -1.289027583188E+01 -1.048412977661E+00 -1.648570738334E+01       51
 Si  1.952084873226E+01  2.270440628785E+01  2.090374374780E+01  0.000000000000E+00  5.472082882142E+01  5.440907379038E-01 -4.446363071125E+01  5.009394747652E-01 -4.152212252855E+01  6.364497502182E+01       52
 O   1.936052977009E+01  2.140511183126E+01  2.190744994811E+01  0.000000000000E+00  3.716651374956E+01 -5.661730654458E+00  4.999718996893E+01 -5.794600930378E+00  4.418460784377E+01  4.109150899456E+01       54
 O   2.009924861112E+01  1.922901368494E+01  2.337534151229E+01  0.000000000000E+00 -5.627199615852E+00  3.149679913265E+01 -6.243235501942E+00  3.828841397342E+01 -5.368235686540E+00 -5.383559381481E+00       55
 O   2.203837122221E+01  2.050366081503E+01  2.221146276660E+01  0.000000000000E+00  3.111159389602E+01 -1.230938543467E+01 -2.744252199645E+01 -1.333466539115E+01 -2.722866536916E+01  2.894504145642E+01       56
 O   2.121100408761E+01  2.177363617494E+01  2.424749577948E+01  0.000000000000E+00 -1.615523122827E+01 -1.488411798406E+01 -2.490128702521E+01 -1.657520981338E+01 -2.178292165434E+01 -1.658375650835E+01       57
 O   1.657040879612E+01  2.116429976623E+01  1.783130595913E+01  0.000000000000E+00  3.009116787818E+01  1.558892186717E+01  1.058428291190E+01  1.313394907731E+01  9.835841248301E+00  3.843348134169E+01       58
 O   1.476176498855E+01  1.388260224586E+01  1.211847001881E+01  0.000000000000E+00 -4.560353519483E+00  3.293612218769E+01 -2.400950983066E+00  2.875076316375E+01 -2.924649242524E+00 -4.288753686337E+00       59
 H   3.369645581811E+00  7.874409132052E+00  1.460806933591E+01  0.000000000000E+00  3.604606266669E+00 -3.980998718308E+00  1.399916752775E+01 -7.385278606682E+00  3.366556473101E+00  6.894858119645E+00       70
 H   1.410459584396E+01  1.904491556356E+01  1.622028389993E+01  0.000000000000E+00 -5.670931245604E+00 -1.193753017376E+00  9.778784227272E+00 -1.016702478077E+00  8.503291324731E+00 -7.657249306121E+00       73
 H   1.686116561335E+01  1.117982278662E+01  1.705237096964E+01  0.000000000000E+00 -2.596208594587E+01 -1.618038378538E+01  1.039250010904E+01 -2.467963151167E+01  1.027597076015E+01 -1.721420254695E+01       83
 Si  1.814017416568E+00  2.077899488758E+01  2.141763921245E+01  0.000000000000E+00  1.099206149191E+00 -1.046509582481E+01  1.506354808655E+01 -1.078674151046E+01 -3.231129167996E-01 -4.859013016147E+01       89
 Si  2.262068962154E+00  2.055513283681E+01  1.829909806498E+01  0.000000000000E+00  5.184482163477E+00 -1.085874307062E+01  2.505462231635E+01 -9.666938466867E+00  3.764939524002E+00  4.933939037634E+00       90
 O   1.238248279262E+00  2.037953715030E+01  1.979299550556E+01  0.000000000000E+00  1.151106484363E+01 -7.041116264399E+00 -1.000183120861E+01 -6.838466523924E+00 -4.733283584756E-01  3.633125109878E+01       92
 O   1.392911593297E+00  1.968833695636E+01  2.263732160586E+01  0.000000000000E+00  3.652574058057E+01  6.169736290255E+00 -3.577169971778E+01  7.093859930142E+00 -2.917629838520E+01  1.207212209010E+01       95
 O   1.691061856626E+00  1.950548235350E+01  1.718358891703E+01  0.000000000000E+00  8.147360642308E+00  1.554718272597E+01 -1.960511432085E+00  1.369647732567E+01  2.167776706803E+00 -5.573370151370E+00       96
 O   3.788499642389E+00  2.008612029608E+01  1.855315947511E+01  0.000000000000E+00 -8.120713556319E-02  9.762222412827E+00  9.738708713347E+00  9.017175372188E+00  1.921606880376E+00  9.073540363396E-01       97
 O   1.186868546434E+01  1.484258896412E+01  2.110846621894E+01  0.000000000000E+00  9.912548674412E-01 -1.510379464191E+01 -4.344448145548E+01 -2.147994125199E+01 -2.442758655262E+01  1.239630842044E+00       98
 O   4.011241982692E+00  1.198769923625E+01  2.027243554218E+01  0.000000000000E+00 -1.286413459334E+00  7.955691863415E+00  9.788574392349E+00  1.345389530685E+01  1.900761792083E+00 -3.305443774806E+00      101
 Ca  2.176438489042E+01  2.397080224466E+01  1.807146507974E+01  0.000000000000E+00 -2.619044956492E+00 -5.384874567964E+00  1.003955155825E+01 -4.059629365781E+00  1.209114276440E+01 -2.884556997040E+00      102
 O   1.576465718246E+01  4.308514241178E+00  1.184812372425E+01  0.000000000000E+00  2.977551174168E+00  5.446379904019E+00 -7.104836358823E+00  1.284886513148E+01 -9.453421667524E+00  6.873076658772E-01      105
 Si  5.545358737438E+00  1.574212703405E+01  1.999371348729E+01  0.000000000000E+00 -9.999150947156E-01 -1.005363812070E+01  1.845026801534E+01 -1.276889454998E+01  5.117276238454E+00 -2.838552236125E+00      107
 Si  8.446690582687E+00  1.664788616647E+01  2.054398275008E+01  0.000000000000E+00  1.573221052463E+01  1.561494461817E+01  4.461355017109E+01  1.926930240100E+01  1.834293080727E+01  3.100717936772E+01      108
 Si  7.803275225101E+00  1.949084933533E+01  1.985610736312E+01  0.000000000000E+00 -2.193157219297E+00  4.217195308888E+01 -3.090495564477E+01  4.296225443227E+01 -1.214537523924E+01 -5.478019895094E+00      109
 O   7.138796506879E+00  1.607675589490E+01  1.996582634929E+01  0.000000000000E+00 -1.341684488767E+01 -1.415600932713E+01 -2.722247596455E+01 -1.758043885671E+01 -9.733417136085E+00 -3.021508456376E+01      110
 O   5.051727258104E+00  1.571562435675E+01  1.850604002015E+01  0.000000000000E+00 -3.533808901267E+00  1.297531637339E-01 -4.302933242943E+01  1.527917177386E-01 -1.174602731298E+01 -1.099347023372E+01      111
 O   4.655624211720E+00  1.667142227538E+01  2.089774467391E+01  0.000000000000E+00 -2.826175318017E+00  2.781294028793E+01  1.557325671834E+01  3.486371559469E+01  3.469428503631E+00 -1.012031040484E+01      112
 O   5.369916772296E+00  1.437113129123E+01  2.085051489286E+01  0.000000000000E+00  8.593766270842E-01 -3.501310726187E+01  7.453277708820E+00 -5.079915419426E+01  1.919544010440E+00  2.299889339097E+00      113
 O   8.353500119665E+00  1.646342693744E+01  2.218351204118E+01  0.000000000000E+00  5.374236294783E+00 -1.409125596082E+01  1.247532056110E+01 -1.898714936264E+01  4.697749914738E+00  1.059176935611E+01      114
 O   1.131727575525E+01  1.406056745321E+01  3.473159167183E+01  0.000000000000E+00  2.709349400450E+00 -1.260562880272E+01 -1.001338415841E+00 -3.113768728038E+01 -3.262857367285E-01  3.366091877868E+00      115
 O   8.511407391396E+00  1.825794204171E+01  2.066944679824E+01  0.000000000000E+00 -1.826248426887E-01  3.428162915958E+01 -3.036855192739E+01  3.880953879973E+01 -1.250537181105E+01 -3.917511687383E-01      117
 O   6.171405195222E+00  1.956429139346E+01  2.032580654407E+01  0.000000000000E+00  9.629211109890E+00  1.439132239064E+01 -1.674702170034E+01  1.495148630445E+01 -5.084799784051E+00  3.052606109689E+01      118
 O   6.083940438041E+00  9.151106099418E+00  2.253584944302E+01  0.000000000000E+00 -4.862058181145E-01  8.387706297160E+00  5.878077661791E-01  2.065587309682E+01  1.586888236671E-01 -7.313222529102E-01      119
 Ca  2.279595293871E+01  1.896253168292E+01  2.061758328862E+01  0.000000000000E+00  1.623032338028E+01  8.779754448224E+00 -3.941970310586E+00  9.546052268587E+00 -4.358462794983E+00  1.350099388914E+01      120
 Ca  3.284975747686E+00  1.237572902316E+01  1.822070931583E+01  0.000000000000E+00 -1.668151255303E-02 -1.989928186703E+01 -1.255314889904E+01 -2.929758964619E+01 -2.006424061055E-01  2.437200468997E+01      121
 Si  6.451407750271E-01  1.727365469036E+01  1.400846254786E+01  0.000000000000E+00 -2.513905901146E+02 -1.274943008478E+01  2.074802521060E+01 -1.033943986092E+01 -1.075822326929E+02  1.627274489905E+01      125
 Si  2.558178199260E+00  1.911925782616E+01  1.577547620988E+01  0.000000000000E+00  2.263549437645E+00  4.949467473003E+01  8.575457548820E-01  4.083851323197E+01 -1.501558316071E+00  2.513682957140E+01      126
 Si  3.388133843281E+00  2.046802322944E+01  1.323025593614E+01  0.000000000000E+00 -1.626785695139E+01  9.647252971752E+01 -1.603093368970E+01  6.235855044046E+01 -5.036566964070E+00 -9.212226622576E+01      127
 O   1.293148730596E+00  1.860090324818E+01  1.498691708686E+01  0.000000000000E+00  2.616790892510E+01 -3.915459264201E+01 -2.762643410262E+01 -3.154721174914E+01  1.546083393212E+01 -3.134794467036E+01      128
 O   1.782622316161E+00  1.677082891695E+01  1.298670822682E+01  0.000000000000E+00  2.601744138255E+01 -1.214215572309E+00 -6.260116742204E+00 -9.402435288153E-01 -3.283403250927E+00  4.729829668948E+00      129
 O   6.610327244646E-01  1.594088625554E+01  1.518888712012E+01  0.000000000000E+00  7.165841244387E+00  3.432563084101E+01 -1.351447804813E+01  3.270634541979E+01  9.004649870494E+00 -9.866580341869E+00      131
 O   3.968128247850E+00  1.848098820536E+01  1.616367188581E+01  0.000000000000E+00 -1.301859488755E+00 -3.296615995013E+01 -3.042194722137E+00 -2.883255953892E+01 -7.468487913917E-01 -6.063223856170E+00      132
 O   2.128926802040E+00  4.544562656564E+00  9.609107434524E+00  0.000000000000E+00  4.295388019546E+00 -7.011039728446E+00 -1.081766044379E+01 -1.477838806792E+01 -2.599300630257E+00 -1.194704879965E+01      133
 O   3.066389994767E+00  2.047255033190E+01  1.478902670678E+01  0.000000000000E+00 -4.188611169677E-01 -8.786968468175E+00  2.991661083962E+01 -6.347558523034E+00  6.658094514785E+00 -1.431923988823E+01      134
 O   1.753808055695E+00  2.078091199236E+01  1.255248004244E+01  0.000000000000E+00  4.154676993851E+01 -7.788869682254E+00  1.142035941837E+01 -4.704780583047E+00 -2.247571178486E+00  5.096464136288E+01      135
 O   8.197413600630E+00  1.499575196453E+01  1.209058348891E+01  0.000000000000E+00 -6.486824937515E+00  4.194865172670E+01  4.600426885700E-01  3.382182348365E+01  3.119088665664E-01 -1.186652553347E+01      136
 Si  8.797490087904E+00  1.462081875983E+01  2.565607784478E+01  0.000000000000E+00  1.416086118190E+01 -2.918363953417E+01 -6.010775398446E+01 -5.121038294654E+01 -2.061099802876E+01  2.353436977535E+01      139
 Si  8.928251284783E+00  1.700822719450E+01  2.358233646971E+01  0.000000000000E+00 -7.698174733243E+00 -4.599696553224E+00  1.563575504941E+01 -6.377595415220E+00  5.919682737448E+00 -1.466494397051E+01      140
 O   8.436313377153E+00  1.585820193374E+01  2.470201783867E+01  0.000000000000E+00 -9.741847869071E-01 -1.493830951307E+01 -3.704138190232E+00 -2.326911900941E+01 -1.265049307679E+00 -1.831228687330E+00      142
 O   7.989024186246E+00  1.316050695619E+01  2.559829880280E+01  0.000000000000E+00  6.652680549169E-02  1.133080507886E+01 -4.322801096647E+01  2.203937394285E+01 -1.349111625717E+01  1.095911673361E-01      143
 O   8.219411623046E+00  1.828761467093E+01  2.427160032373E+01  0.000000000000E+00 -8.866669829506E+00  1.432685849589E+01  2.799165078733E+00  1.901482448991E+01  9.479181296700E-01 -1.972771880675E+01      148
 O   1.281387328491E+01  1.617648292426E+01  1.191097221528E+00  0.000000000000E+00 -8.068679926391E-01 -1.070100630898E+01  4.348809523928E+01 -1.073407610586E+01  4.750557289698E+00 -1.018605851240E+00      150
 Ca  4.381760512699E+00  1.196152967042E+01  7.574425852497E+00  0.000000000000E+00 -2.329943642273E+00 -9.383256781455E+00 -6.381460134588E+00 -5.941780416417E+00 -3.691620774363E+00 -6.360198754588E+00      151
 Ca  1.290886463609E+01  2.166074395372E+01  1.149282303207E+00  0.000000000000E+00 -4.364659807665E+00  8.980034930615E+00 -2.700666659855E+01 -1.587353627947E-01  1.932730759502E+00 -7.323787273639E+00      152
 H   7.592924697588E+00  1.803851699051E+01  1.599143346802E+01  0.000000000000E+00  2.148134882738E+01 -6.184025476576E+01  2.232739098091E+01 -5.482237371576E+01  1.060131343138E+01  5.103325677983E+01      155
 H   1.219292397260E+01  1.404407718981E+01  3.423888193549E+01  0.000000000000E+00 -2.127953179325E+01 -1.723335841367E+01  2.053342395191E+01 -4.201421824325E+01  7.312227005967E+00 -2.451023132261E+01      156
 H   1.442292630533E+01  1.460790778822E+01  1.151018192762E+01  0.000000000000E+00  1.186955790273E+01 -2.770341288625E+01  1.280811472066E+01 -2.182867847741E+01  1.604931146075E+01  1.202179111641E+01      159
 H   1.645466293857E+01  3.900520553566E+00  1.248128065583E+01  0.000000000000E+00 -3.291024361183E+00 -6.297251122117E-02  2.947822504095E+00 -1.651389784327E+00  3.886253906562E+00 -7.855075661536E-01      160
 H   1.609247420160E+01  1.680010148111E+01  1.635327574503E+01  0.000000000000E+00  2.215698847340E+01 -9.281337249120E+00 -3.527907764689E+01 -9.034485148091E+00 -3.471644799125E+01  2.313128796762E+01      164
 H   1.873197932775E+01  6.306827852493E+00  5.620562923866E+00  0.000000000000E+00  4.493866912889E+01  1.876646165450E+01  1.080179591653E+00  1.672442645565E+01  3.599977805636E+00  1.513029910813E+01      168
 H   5.032356042303E+00  2.030311012818E+01  3.434108306986E+01  0.000000000000E+00 -9.635107754824E-01 -3.477340403426E+00 -3.289944386829E+00 -5.881642512026E+00 -4.821097657350E-01 -3.887297563977E+00      169
 Si  1.233038315782E+01  4.467683828025E-01  1.972710592760E+01  0.000000000000E+00  1.980103513306E+01 -1.535360032770E+02 -4.842815752048E+00  1.312499173860E+01 -3.026991085495E+00 -5.188453474644E+01      177
 Si  1.128165857497E+01  3.467781855889E+00  1.894922965516E+01  0.000000000000E+00 -2.089005674111E+00 -4.463809342791E-01 -1.481003883783E+01 -1.060487828331E+01 -8.817340055029E+00 -8.151139834411E-01      178
 Si  8.502842834807E+00  3.852468550968E+00  1.973932139024E+01  0.000000000000E+00 -1.639539755931E+01  4.862026088015E-01  2.569934354219E+01  2.956709764261E+00  1.107016167258E+01 -7.408752874396E+00      179
 O   1.204718890987E+01  1.885444138285E+00  1.885133436778E+01  0.000000000000E+00 -8.711732868297E+00  2.204912254467E+00  4.512204216697E+00  2.270847969850E+01  2.883582431776E+00  1.154840237215E-01      180
 O   1.182755186871E+01  5.417121251996E-01  2.124330960034E+01  0.000000000000E+00 -3.049464920383E+01  4.495024586229E+00 -7.563017489255E+01  1.331750538611E+01 -4.210830766065E+01  1.690654019766E+00      182
 O   1.198746983729E+01  4.626490126161E+00  1.781784728852E+01  0.000000000000E+00 -1.581455380449E+01 -6.816239554769E+00 -1.650019430318E+01 -2.624952686027E+01 -1.110098084892E+01 -6.103683881142E+00      184
 O   1.183038755624E+01  4.376843812753E+00  2.010318725593E+01  0.000000000000E+00 -1.894152031384E+00 -1.875027540774E+00  3.311507938741E+01 -8.612148702313E+00  1.948766721024E+01 -7.007722747514E-01      185
 O   9.535357976451E+00  3.268162093501E+00  1.864947316408E+01  0.000000000000E+00  2.869222219545E+01 -4.883383764977E-01 -1.376553276830E+01 -9.664162635025E+00 -7.038230062990E+00  9.662368267870E+00      187
 O   6.931938628118E+00  3.952016300089E+00  1.927835642541E+01  0.000000000000E+00  6.263549445776E+00  9.660137136384E-01  5.226609640873E-01  5.593270438137E+00  1.879337453057E-01  3.532200218928E+00      188
 Ca  1.156436266469E+01  4.708414752821E+00  2.226796144343E+01  0.000000000000E+00 -1.742788949044E+00 -8.071884793619E-01  3.578174233378E+00 -3.817514573295E+00  1.858243944664E+00 -7.095741837795E-01      190
 O   1.559108929405E+01  1.936733539122E+01  7.845019717099E+00  0.000000000000E+00  1.084487228241E+01 -8.442558052360E+00 -1.469059576111E+00 -3.419780421293E+00 -2.919589734045E+00  1.347155896596E+01      193
 O   4.498911273783E+00  1.218821389707E+01  1.283375792909E+01  0.000000000000E+00  2.897110913248E+00 -5.845829209856E-01 -1.295597198891E+01 -6.155451291524E-01 -4.515997321046E+00  8.114788390697E+00      194
 Si  1.811966193951E+01  1.677269892632E+00  2.013223232672E+01  0.000000000000E+00  5.588819658239E+01  5.666972660611E+00 -2.816012915741E+01 -1.532278440373E+01 -2.534502941475E+01  5.213847564766E+00      196
 Si  1.704802054259E+01  4.337082040089E+00  1.895533137719E+01  0.000000000000E+00 -3.922129688018E+01 -5.707687174029E+00  1.428439003844E+01 -2.628157790008E+01  1.284707557826E+01 -1.000293781096E+01      197
 O   1.984763081461E+01  1.690335162526E+00  2.042096640774E+01  0.000000000000E+00 -1.255894841895E+01  2.005940745313E+01  1.551780694101E+01 -1.369992888214E+01  1.508213162237E+01 -8.680386068331E+00      202
 O   1.763049560550E+01  3.156038501015E+00  2.001513290049E+01  0.000000000000E+00 -2.288030567316E+00  8.041900750132E+00 -1.625934514006E+01  4.751646344999E+01 -1.432217884663E+01 -9.537597419148E-01      205
 O   1.574159551636E+01  4.980591222392E+00  1.981601821250E+01  0.000000000000E+00  1.849586919066E+01  2.233587245162E+00 -1.282477084785E+01  8.886656935495E+00 -1.018783658311E+01  5.852034734711E+00      206
 Ca  1.444100922195E+01  5.621130291260E+00  1.812548566110E+01  0.000000000000E+00 -6.619510460368E+00 -1.779617657168E+00 -7.634733964835E+00 -5.738424952966E+00 -6.082775692455E+00 -2.576629527079E+00      209
 O   2.314456173597E+01  1.926940657519E+01  1.489397487324E+01  0.000000000000E+00  4.623092344979E+01 -1.859395520791E+01  2.415770056584E+01 -1.437189570837E+01  3.753997149209E+01  3.849035771180E+01      210
 O   1.515761011474E+01  1.855066963528E+01  4.937770549077E+00  0.000000000000E+00 -3.761726536305E+01 -5.931955191949E+01 -4.642051434196E+00 -1.578952901492E+01 -1.424983301123E+01 -4.603796093515E+01      212
 Si  1.338501447444E+01  3.408236582297E+00  1.467534113683E+01  0.000000000000E+00  1.081922649596E+00  4.822371211961E+00  3.643088282882E+01  2.518764618311E+01  3.322770417626E+01  3.029309068674E-01      213
 Si  1.148699733194E+01  4.921151374538E+00  1.626863835536E+01  0.000000000000E+00  1.108948893095E+01  1.404596672090E+01  5.853220187767E+00  4.646564721769E+01  4.132855080523E+00  4.748535689205E+00      214
 Si  9.310091647812E+00  6.126648770791E+00  1.456363540066E+01  0.000000000000E+00 -1.168960656527E+01  2.447917250228E+00  4.389768511343E+01  5.818935548138E+00  2.806246244768E+01 -7.692525101081E+00      215
 O   1.168198683330E+01  3.820624578098E+00  1.518248285823E+01  0.000000000000E+00  3.097370910981E+01 -7.715924805256E+00 -2.994547044311E+01 -3.258481829507E+01 -2.304119785279E+01  1.027056926539E+01      216
 O   1.422334476565E+01  3.793655362096E+00  1.620852611117E+01  0.000000000000E+00 -8.322206994084E+00 -6.464969370919E-01 -2.378694873041E+01 -4.784856742056E+00 -2.087358038571E+01 -2.145462528326E+00      217
 O   1.386323727667E+01  4.683763812341E+00  1.372564957393E+01  0.000000000000E+00 -5.755751628257E-01 -5.939533484146E+00  7.300850383010E+00 -1.740565034924E+01  7.374035060124E+00 -1.944609375952E-01      218
 O   1.341361268528E+01  1.834739419322E+00  1.457117718818E+01  0.000000000000E+00  1.120793398811E+01  7.587073685461E+00 -1.550646653293E+01  2.053890936064E+00 -1.427460070685E+01  1.546891995369E+00      219
 O   1.246320434053E+01  6.415742320826E+00  1.593614317184E+01  0.000000000000E+00  3.198877148992E+00 -9.536591942385E+00  4.929306583948E+00 -2.368806086116E+01  3.855070486654E+00  1.646701036360E+00      220
 O   9.958093705951E+00  5.240322103347E+00  1.595187737795E+01  0.000000000000E+00 -2.253650046787E+01  4.363207738842E+00  6.127961685341E+00  1.328188486354E+01  3.825431655677E+00 -1.185955113711E+01      222
 O   1.064307974221E+01  6.404364668999E+00  1.390925546742E+01  0.000000000000E+00  3.175502154335E+01  8.828150914495E+00 -2.653757263045E+01  1.917333142646E+01 -2.030601151385E+01  1.910826029321E+01      223
 O   2.099973567508E+01  2.036617364482E+01  1.295770914109E+01  0.000000000000E+00 -3.769728735883E+01  1.202115914253E-02  2.594166653483E+01  7.648303821041E-03  4.204201022501E+01 -3.655996019035E+01      224
 Ca  1.595893459709E+01  8.119654989481E+00  6.527193688808E+00  0.000000000000E+00 -1.990462455105E+01 -1.471665978613E+00 -7.615157085109E-01 -1.183036582229E+00 -1.861899610490E+00 -1.012715999721E+01      225
 Ca  1.643054148462E+01  4.577674068206E+00  1.576190293630E+01  0.000000000000E+00 -7.863106658863E-01  7.106002093279E-01 -1.383830930038E+01  2.574232168106E+00 -1.442534673357E+01 -2.103079272098E-01      226
 Si  2.134694441972E+01  2.403370809455E+00  2.039472375539E+01  0.000000000000E+00 -2.709811867682E+01  7.677470802102E+00 -5.233589179481E+01  3.984128950297E+01 -5.477943151866E+01  1.452628344244E+00      228
 Si  2.282890306932E+01  4.538494155034E+00  2.187371167663E+01  0.000000000000E+00  4.862447988479E+00 -5.274723518822E+00 -4.219706279694E+00 -1.906019830300E+01 -4.403974371805E+00  8.720866026938E-01      229
 O   2.243994676705E+01  1.169533371313E+00  2.057336770240E+01  0.000000000000E+00 -2.599907716297E+01  4.322538809120E+01 -3.918093514040E+01  4.000767917980E+01 -4.273574028094E+01  1.648632054766E+00      230
 O   2.144843996392E+01  3.636146794232E+00  2.147174104638E+01  0.000000000000E+00  9.254659005240E+00  2.961437152873E+00  4.815901938826E+00  9.441703434380E+00  4.810675733464E+00  1.667374640414E+00      236
 O   2.314197598812E+01  4.243695474901E+00  2.362663605115E+01  0.000000000000E+00  1.314512140042E+01  1.488526284287E+00 -4.309667616240E+01  1.006089370685E+01 -4.221262149884E+01  2.356879674159E+00      237
 H   1.446274482046E+01  1.785791663148E+01  4.635267550307E+00  0.000000000000E+00  1.788487221668E+01  1.443147179501E+01  4.128055017857E+00  3.745886728842E+00  1.288016402076E+01  2.208339848175E+01      243
 H   1.942486521128E+01  1.706182243069E+01  6.224856701624E+00  0.000000000000E+00 -7.166236873273E+00  5.168733082383E+00  2.568420650442E-01  1.885767062545E+00  8.014839109097E-01 -6.294461232968E+00      247
 H   1.324605127961E+01  8.212272923036E+00  4.979561914980E+00  0.000000000000E+00  2.961640411534E+00  4.225222920358E+00  1.004395307885E+01  2.561989760167E+00  2.671775545802E+01  1.836154703465E+00      248
 H   5.825974103691E+00  1.023483052943E+01  9.821410611667E+00  0.000000000000E+00  2.236793692009E+01  5.861554058995E+01 -3.463542216034E+01  5.624785781293E+01 -2.054542677778E+01  3.929506715881E+01      249