     8448
Lattice="     49.70      0.00      0.00      0.00     49.70      0.00      0.00      0.00     49.70" pbc="T T T" config_type=md Properties=species:S:1:pos:R:3:charge:R:1:forces:R:3:id:I:1
 Si  1.034985810811E+01  1.786942940690E+01  1.624909910753E+01  0.000000000000E+00  8.707801496108E+00 -2.979962348962E+01  9.600669724919E+00 -2.709750963078E+01  6.115143291214E+00  1.503435530214E+01        1
 Si  1.226078888401E+01  2.025152660494E+01  1.680316083592E+01  0.000000000000E+00  1.693822126422E+01  1.610800200834E+01  2.021116933270E+01  1.336518247594E+01  1.474751582200E+01  2.797738724791E+01        2
 Si  1.092462296016E+01  2.255529389361E+01  1.786079685756E+01  0.000000000000E+00 -3.523807838044E+01  1.625335716556E+01 -4.590097268776E+01  1.287050002349E+01 -2.807550100466E+01 -7.275356019290E+01        3
 O   1.092739752057E+01  1.945677363952E+01  1.637940517698E+01  0.000000000000E+00 -8.479259510702E+00  1.444106126549E+00 -7.625146116613E-01  1.215699982101E+00 -5.087059137272E-01 -1.509774240572E+01        4
 O   8.815330073708E+00  1.758034225006E+01  1.572501521209E+01  0.000000000000E+00  1.150732708146E+01  2.167165866663E+01 -5.323907312415E+00  1.938455789750E+01 -2.984544027956E+00  2.294897034869E+01        5
 O   1.149409106636E+01  1.707885807063E+01  1.535686112377E+01  0.000000000000E+00 -7.840188688569E+00  5.895901787740E+00 -1.051421416016E+01  5.301440212181E+00 -7.869533628912E+00 -1.164959187168E+01        6
 O   1.057271582452E+01  1.721993257779E+01  1.771198997838E+01  0.000000000000E+00 -1.254536119398E+01 -9.656052691060E-01  2.882308066121E+01 -9.931973178301E-01  1.720519497754E+01 -2.043280813652E+01        7
 O   1.257341285998E+01  2.143657451963E+01  1.567526392033E+01  0.000000000000E+00 -7.360163131126E-01 -3.119147659750E+00 -3.707222196625E+00 -2.280843085647E+00 -2.973630012150E+00 -1.254843750014E+00        8
 O   1.376666838165E+01  1.951204333082E+01  1.722673822719E+01  0.000000000000E+00 -3.144818319444E+01  9.145488769668E+00  2.380181523310E+00  8.074343538689E+00  1.902111083793E+00 -4.457275327293E+01        9
 O   1.184659929030E+01  2.135685475525E+01  1.812911410561E+01  0.000000000000E+00  2.767048054541E+01 -8.739014827102E+01 -1.898211754580E+01 -7.418255112318E+01 -1.240400048985E+01  4.988388815515E+01       11
 O   1.893322186528E+01  1.800922790205E+01  2.117943093445E+01  0.000000000000E+00 -2.262198036037E+00 -1.391238793883E+01 -3.375794977647E+01 -1.636141544137E+01 -3.017771132818E+01 -2.151796470798E+00       13
 Ca  3.158611744756E+00  1.623758057303E+01  1.629909426826E+01  0.000000000000E+00 -1.288585642624E+00  3.128080733403E+00  2.751022622790E+00  3.139931009005E+00  3.245185374302E-01  9.883876566807E-01       14
 Ca  2.028005338593E+01  1.444181989158E+01  1.849848622662E+01  0.000000000000E+00  2.324118591580E+01 -3.881655895001E+00  1.593917085689E+01 -4.972002050243E+00  1.747425340350E+01  1.655049987667E+01       15
 O   7.543643608163E+00  4.247854822649E+00  1.626728699246E+01  0.000000000000E+00 -9.984188228036E+00 -3.609086146973E-01  7.404912308405E+00 -1.352329877794E+00  3.433886635810E+00 -5.621520575427E+00       16
 O   9.614969310933E+00  1.665521858863E+01  2.019046436700E+01  0.000000000000E+00 -3.445911578002E+01  1.591321765350E+01 -5.174115057459E+00  1.929096590882E+01 -2.463982827954E+00 -5.969068513144E+01       18
 Si  2.035869355571E+01  1.996863682806E+01  1.824275398560E+01  0.000000000000E+00  2.305746168880E+01 -3.226267441012E-01 -1.216599112817E+01 -2.947422186347E-01 -1.357709945414E+01  2.261569866360E+01       19
 Si  1.839820966664E+01  2.221793736643E+01  1.878852052870E+01  0.000000000000E+00 -2.462855644004E+01 -2.386844535840E+01  5.129467455780E+01 -2.018426680246E+01  5.022908407582E+01 -2.974179196374E+01       20
 O   1.924734650199E+01  2.073122321566E+01  1.919339265020E+01  0.000000000000E+00 -1.079162194796E+01  1.764343833892E+01 -2.845018285451E+01  1.633465793195E+01 -2.853015813440E+01 -1.162360346341E+01       22
 O   2.158270275722E+01  2.105510326628E+01  1.781591036046E+01  0.000000000000E+00 -1.544254792157E+01 -7.504689133326E+00  2.612063835606E+01 -6.350140732703E+00  3.164328749198E+01 -1.506504745215E+01       23
 O   1.992281311676E+01  1.953013980472E+01  1.673252858950E+01  0.000000000000E+00 -4.806322424788E+00 -2.963067165550E-01  1.505434649501E+01 -2.538620130522E-01  1.792466274364E+01 -4.711591096726E+00       24
 O   2.103670297100E+01  1.866903762439E+01  1.923723347937E+01  0.000000000000E+00 -1.801623903439E+01  2.002762159079E+01 -8.560691942663E+00  2.063716621767E+01 -9.361467376126E+00 -1.598852466789E+01       25
 O   1.861531329676E+01  2.278719407253E+01  2.045703271321E+01  0.000000000000E+00 -1.461150479752E+01  9.697406262455E-01 -7.743358135216E+01  8.705773800534E-01 -7.046233912653E+01 -1.788609142403E+01       26
 O   2.147895985352E+01  1.706428029055E+01  2.120042409565E+01  0.000000000000E+00 -1.345510613280E+01 -4.962267178717E+00 -1.209435908476E+01 -6.165051609179E+00 -1.225325739068E+01 -1.068960992316E+01       27
 O   1.910763214867E+01  2.310066053036E+01  1.764202536001E+01  0.000000000000E+00  1.096297982332E+01 -3.384859292889E+00 -2.197474287902E+00 -2.585024502081E+00 -2.380028907824E+00  1.325397481641E+01       29
 Ca  5.289622213580E+00  1.016505120938E+01  1.494115903740E+01  0.000000000000E+00 -9.832439910632E-01  1.893308961844E+00 -1.952062365541E+01  2.782891076805E+00 -6.910891200080E+00 -1.889497040982E+00       32
 Si  1.409486861448E+01  1.974297767965E+01  1.307451385687E+01  0.000000000000E+00 -2.761761407598E+01 -1.894881347656E+01 -1.359160394973E+01 -1.254858959932E+01 -1.465231319717E+01 -3.868457047603E+01       37
 Si  1.216521226234E+01  2.182858010835E+01  1.410415077979E+01  0.000000000000E+00  4.177513996872E+01  2.490211343339E+01 -2.219204441382E+01  1.609005995151E+01 -1.914123969920E+01  7.495898712493E+01       38
 O   1.251056602089E+01  2.054156476609E+01  1.316078051818E+01  0.000000000000E+00  9.304983730876E+00 -2.752328300931E+01 -4.836548496826E+00 -1.763389941078E+01 -4.597596563455E+00  1.527819969425E+01       40
 O   1.423948184208E+01  1.864329880591E+01  1.427236323261E+01  0.000000000000E+00  1.478181264746E+00 -3.140496981557E+00  7.771728735848E+00 -2.404205077563E+00  7.753823835061E+00  1.935335520885E+00       41
 O   1.518919117255E+01  2.081375957087E+01  1.304980816731E+01  0.000000000000E+00  2.092473778341E+01  3.841227004663E+01 -5.533989151010E+00  2.408371989081E+01 -6.441230252873E+00  2.867318321035E+01       42
 O   1.432836193587E+01  1.876035136004E+01  1.174320133172E+01  0.000000000000E+00 -1.359761890695E+01 -4.427889111235E+00 -1.157364560265E+01 -2.771674810873E+00 -1.412148003155E+01 -1.780357793139E+01       43
 O   1.341697681647E+01  2.289725122924E+01  1.342918616855E+01  0.000000000000E+00 -3.149118427627E+01 -2.195570311845E+01  1.997957045397E+01 -1.287697032658E+01  1.996140571881E+01 -5.374247624809E+01       44
 O   1.066983298551E+01  2.237475686943E+01  1.376469860444E+01  0.000000000000E+00  1.317235664669E+01  1.970808680555E+00  6.236286719675E+00  1.212419319377E+00  4.834115127461E+00  2.762257645152E+01       46
 O   8.514065737403E+00  2.129324667562E+01  1.438956008537E+01  0.000000000000E+00 -8.488308686528E+00  2.427385772507E+01 -8.842344415248E+00  1.640379879873E+01 -5.231869576106E+00 -2.122882959748E+01       47
 O   1.658353180321E+01  1.560657614312E+01  1.084012379759E+01  0.000000000000E+00  2.169924777422E+00  1.434499275185E+01 -2.113350455769E+00  9.963844463998E+00 -3.233064045113E+00  2.042091917786E+00       48
 Ca  6.593061402853E+00  2.078602779129E+01  1.320033101871E+01  0.000000000000E+00 -1.160695147166E+00  8.231973158718E+00  2.275349931301E-02  5.227779531679E+00  1.136450426037E-02 -3.659338221206E+00       49
 Si  2.037377378769E+01  2.006145081711E+01  2.320211777741E+01  0.000000000000E+00  3.752907253254E+01 -3.429013852715E+00 -4.186789039626E+00 -3.965833976632E+00 -3.676418403202E+00  3.695376471091E+01       51
 Si  1.966305166970E+01  2.249361568322E+01  2.159284373109E+01  0.000000000000E+00 -1.970127264805E+00 -4.327242093738E+01  3.140592481177E+01 -4.153954776883E+01  2.859911968979E+01 -2.253733870305E+00       52
 O   1.952923214925E+01  2.082418380449E+01  2.209305824432E+01  0.000000000000E+00 -5.077074703192E+00  4.166536269177E+01 -2.457548873075E+01  4.420414712827E+01 -2.172358481549E+01 -5.413727278187E+00       54
 O   1.949673844526E+01  1.874083888035E+01  2.374096363639E+01  0.000000000000E+00  1.098556469478E+01 -5.080213305994E+00  9.773673849248E-01 -6.435632904841E+00  8.026412306027E-01  1.055964814488E+01       55
 O   2.201253206572E+01  1.960437272977E+01  2.276283570940E+01  0.000000000000E+00 -4.624839792803E+01  4.947113663575E+00  3.914924309897E+00  5.744143774043E+00  3.785881425611E+00 -4.118884771769E+01       56
 O   2.071076128758E+01  2.102504991199E+01  2.443511760554E+01  0.000000000000E+00 -3.203120935166E+00  1.542652373961E+00  3.599467160009E+01  1.792856251947E+00  3.050842902288E+01 -3.251728731787E+00       57
 O   1.680581082820E+01  2.216653970385E+01  1.849018322817E+01  0.000000000000E+00  1.435618226043E+01 -5.629597214709E+00 -6.726849276949E-01 -4.695919407875E+00 -6.114063610034E-01  1.893552696295E+01       58
 O   1.537646084786E+01  1.196957585459E+01  1.158590080693E+01  0.000000000000E+00 -1.560323804178E+01  6.542793993519E+00  2.664162684677E+01  6.333070037731E+00  3.535796991181E+01 -1.214610716773E+01       59
 H   3.581802895035E+00  5.359360820221E+00  1.631895151484E+01  0.000000000000E+00  7.170295292794E-01  1.563959601859E+00  9.160875678155E+00  4.762168805207E+00  1.999780113877E+00  3.081563248373E-01       70
 H   1.362770422155E+01  1.873450465983E+01  1.786183557842E+01  0.000000000000E+00  5.573256378902E+00  1.432165599252E+01 -5.205508748680E+00  1.365454113647E+01 -3.971547786243E+00  7.661759890257E+00       73
 H   1.533811236289E+01  9.473675635762E+00  1.624099206952E+01  0.000000000000E+00  9.091908569599E-01  2.240198140571E+00  7.730504274919E+00  3.840435500856E+00  7.300745095062E+00  5.615670993961E-01       83
 Si  2.261230961911E+00  2.138218806492E+01  2.085770269202E+01  0.000000000000E+00  9.257369429604E+00  4.639207739304E+01 -4.208309712976E+01  4.525412247762E+01 -4.467158549993E+00  3.316075749728E+01       89
 Si  2.138725765900E+00  2.121105337935E+01  1.763876842448E+01  0.000000000000E+00  5.702924741603E+00  1.362713359845E+01 -2.918573619259E+01  1.133210357514E+01 -3.971308129599E+00  4.756152259200E+01       90
 O   1.515236731044E+00  2.122464747626E+01  1.911627025790E+01  0.000000000000E+00  2.370995195645E+01 -3.641253844723E+00  1.941241231815E+01 -3.279545285791E+00  2.506945869325E-01  3.825748483986E+00       92
 O   2.286283788259E+00  1.996756526201E+01  2.141325862377E+01  0.000000000000E+00 -1.995141042687E+00 -6.939726400596E+01  2.936115217966E+01 -7.442177062863E+01  2.494957172252E+00 -3.070639970739E+01       95
 O   1.261960857593E+00  2.021303682147E+01  1.660229209099E+01  0.000000000000E+00  6.921344907702E+01 -1.867559564304E+01 -3.385307253449E+00 -1.533949087302E+01 -1.306134697265E+01  2.297334531314E+01       96
 O   3.691056280678E+00  2.080625330881E+01  1.747728647438E+01  0.000000000000E+00  6.269652932191E-01 -1.272131794938E+01  9.843377640154E+00 -1.068592767919E+01  2.114598500117E+00  4.416637946783E+00       97
 O   1.125613615408E+01  1.527988443431E+01  2.102875267040E+01  0.000000000000E+00  2.234585915002E+01 -2.583841549356E+01 -3.994675062875E+01 -3.555980093600E+01 -2.138244103386E+01  3.033386774323E+01       98
 O   3.498632770158E+00  1.255311399837E+01  1.974454136805E+01  0.000000000000E+00  2.804033583045E+00 -7.916527133431E+00  5.658695857563E+01 -1.245174683331E+01  1.025200145416E+01  7.676629692448E+00      101
 Ca  2.156328930340E+01  2.314016165212E+01  1.901025114054E+01  0.000000000000E+00  1.543509732001E+00 -1.779259532275E+00 -7.622781729264E+00 -1.461708481611E+00 -8.646505851482E+00  1.656382948240E+00      102
 O   1.729511079151E+01  4.163185884102E+00  1.068808107771E+01  0.000000000000E+00  8.384580730417E+00 -6.555625375026E+00 -5.545564047861E+00 -1.683015303039E+01 -8.973654289465E+00  2.018291097512E+00      105
 Si  5.238698925725E+00  1.617724033883E+01  1.925763010805E+01  0.000000000000E+00  1.034232190733E+01 -3.022377743196E+01  2.080720600636E+01 -3.597883903942E+01  5.660233743262E+00  3.193736260254E+01      107
 Si  8.033765294330E+00  1.706536160696E+01  2.054557197019E+01  0.000000000000E+00  1.208940029217E+01 -3.864174705212E+01 -1.611450745273E+01 -4.652211968304E+01 -6.301122738117E+00  2.568036033399E+01      108
 Si  7.266660577093E+00  1.958217791844E+01  1.951437722775E+01  0.000000000000E+00  8.447937482138E+00  3.872570996069E+01  3.884072933216E+01  3.859162733241E+01  1.446330535326E+01  2.276547983273E+01      109
 O   6.929454465168E+00  1.633314038326E+01  1.942587272861E+01  0.000000000000E+00  2.173998410786E+00  1.910737281995E+01  2.810992844888E+01  2.272541494585E+01  1.002716696063E+01  5.124244832669E+00      110
 O   4.822555894926E+00  1.686360844260E+01  1.789235838039E+01  0.000000000000E+00 -1.341567646240E+00 -3.077757383296E+00 -1.653050476683E+01 -3.265513326953E+00 -4.455493318127E+00 -4.691220170044E+00      111
 O   4.304999076557E+00  1.661511058714E+01  2.045502898356E+01  0.000000000000E+00  1.270497767189E+00  2.134939169609E+00  8.630781524031E+00  2.628344985335E+00  1.815653201013E+00  4.910996096232E+00      112
 O   5.262036818101E+00  1.433939194618E+01  1.932844181471E+01  0.000000000000E+00 -1.134889771674E+00  3.043300646637E+01  6.369559507011E+00  4.102144616310E+01  1.734069252053E+00 -3.092648306027E+00      113
 O   7.512749753998E+00  1.659151291732E+01  2.211959857128E+01  0.000000000000E+00 -2.241720675050E+00  3.211854816611E+00 -8.559399463183E+01  4.282004876029E+00 -2.907133508964E+01 -4.950722272804E+00      114
 O   1.297743519770E+01  1.345197288151E+01  3.664571807981E+01  0.000000000000E+00 -1.082715825976E+01  1.376647093905E+01 -4.827753564608E+01  3.750247026442E+01 -1.709663838453E+01 -1.122306812365E+01      115
 O   8.116077153691E+00  1.868017273861E+01  2.058591279099E+01  0.000000000000E+00 -4.909536996877E+00 -6.973900009537E+00  1.828646513859E-01 -7.685373118241E+00  7.209510865026E-02 -1.129991711902E+01      117
 O   5.724417635521E+00  1.975487731585E+01  1.975308967438E+01  0.000000000000E+00 -1.102714523271E+01  4.133948934730E+00  1.615518318082E+01  4.133574848957E+00  4.681749388570E+00 -3.805450878786E+01      118
 O   6.525976930784E+00  9.851738810009E+00  2.174037606818E+01  0.000000000000E+00  7.582712587761E+00  1.109897860553E+01 -3.649188332567E+01  2.449272900047E+01 -1.095405102457E+01  1.144700704252E+01      119
 Ca  2.346001954538E+01  1.928035417674E+01  2.057842681317E+01  0.000000000000E+00 -1.100866366123E+01 -6.612638496102E+00  2.398199554382E+01 -7.057842199709E+00  2.734018928187E+01 -9.047346869876E+00      120
 Ca  3.106465953244E+00  1.240602864878E+01  1.779030376891E+01  0.000000000000E+00 -4.071476502684E+00 -2.286992104059E+01 -2.897848061742E+01 -3.279557495805E+01 -4.695802439871E+00 -1.151759582594E+01      121
 Si  1.102907696988E+00  1.706639699410E+01  1.396611439356E+01  0.000000000000E+00 -1.925897376938E+02 -8.683112459177E+00 -4.360571593566E+01 -7.105737780440E+00 -1.774844268961E+02  9.587535678218E-01      125
 Si  2.117027239953E+00  1.940435313012E+01  1.531929537049E+01  0.000000000000E+00 -1.142356742022E+00  4.431998573957E+00 -4.654194053875E+00  3.498962051493E+00 -4.886207816358E+00  3.295696457978E+01      126
 Si  3.152062544834E+00  2.125170045520E+01  1.295316662393E+01  0.000000000000E+00 -1.607046370765E+00 -4.682984361247E+01  2.051479450443E+01 -2.854335202794E+01  6.160371556385E+00  3.858437745714E+01      127
 O   8.001788683707E-01  1.853248690983E+01  1.465720412856E+01  0.000000000000E+00  3.687396981068E+01  1.193434152834E+01  1.774966227621E+01  9.438780708278E+00  2.277190966419E+01  2.332473942106E+01      128
 O   2.493833885929E+00  1.696941522319E+01  1.309058644841E+01  0.000000000000E+00  2.289180329419E+01  6.512842288872E+00  6.676742463534E+00  5.024152210670E+00  4.116952896546E+00 -1.079429903764E+01      129
 O   9.236236288955E-01  1.576929515173E+01  1.501817809396E+01  0.000000000000E+00  1.889097964261E+01  8.703185600350E+00  5.757756332362E+00  8.288638780183E+00  2.399973461633E+01  4.713173632141E+00      131
 O   3.484703137395E+00  1.845213612478E+01  1.552567117473E+01  0.000000000000E+00 -7.702639967997E+00 -5.105029690746E+00  9.750697264533E+00 -4.295384110532E+00  2.012008832029E+00 -3.733900128793E+01      132
 O   2.502673306280E+00  4.922683947848E+00  9.922744800498E+00  0.000000000000E+00  3.106632137600E+00 -7.629079925312E+00 -3.216747346372E+01 -1.537807707411E+01 -6.449990668131E+00  3.037803523666E+00      133
 O   2.892017431293E+00  2.063066204222E+01  1.453857899493E+01  0.000000000000E+00 -7.875529210499E-01  8.686530881436E+00 -2.359128374226E+01  6.121462081693E+00 -4.499124460807E+00 -2.021888485052E+01      134
 O   1.894395306614E+00  2.115163580941E+01  1.205146068172E+01  0.000000000000E+00  2.934882923645E+00  2.695647379629E+00 -1.496108397353E+01  1.535885389674E+00 -1.121961821116E+01 -8.980234323090E+01      135
 O   8.527699359611E+00  1.487167164866E+01  1.301376889629E+01  0.000000000000E+00 -1.375317975317E+01  2.904651734341E+00 -1.202547053941E+01  2.541776559351E+00 -7.880084411763E+00 -2.398451971499E+01      136
 Si  8.513463864242E+00  1.421273943635E+01  2.536210560849E+01  0.000000000000E+00 -1.244820051173E+01  2.849803517210E+00  1.321775442854E+01  5.085368523824E+00  4.436890076515E+00 -2.078155650226E+01      139
 Si  7.947306784682E+00  1.647389999380E+01  2.359584148818E+01  0.000000000000E+00  2.509691643215E+01  5.672830343746E+00  9.003542436372E+01  8.125289435455E+00  3.032479851443E+01  5.202316994392E+01      140
 O   7.520626997334E+00  1.502007900060E+01  2.429461284520E+01  0.000000000000E+00  9.324112620682E+00 -3.449288040041E+00  9.421487982979E+00 -5.579139598469E+00  2.916510640911E+00  1.862197237315E+01      142
 O   7.731107670061E+00  1.276657809165E+01  2.555067175858E+01  0.000000000000E+00  8.222126451990E+00  3.192147889585E+00 -1.501179574773E+01  6.388675363604E+00 -4.542260584899E+00  1.357741010841E+01      143
 O   7.210337458578E+00  1.765114598845E+01  2.453985104339E+01  0.000000000000E+00 -5.226942145668E+00  1.760720228136E+01 -7.672541547269E+00  2.447875744488E+01 -2.254358171244E+00 -1.279572827435E+01      148
 O   1.239739860108E+01  1.579535626153E+01  1.247307163108E+00  0.000000000000E+00  4.891227671660E+00  1.993365478254E+01  5.796065923508E+01 -2.065488671290E+01 -1.129478105672E+00  6.231846382950E+00      150
 Ca  4.731376597764E+00  1.148857973135E+01  7.364052602298E+00  0.000000000000E+00 -5.656257300922E-01  1.174572831995E+01 -9.910515747215E-01  7.528882004830E+00 -6.367469762982E-01 -1.373434594350E+00      151
 Ca  1.172558745005E+01  2.178959159994E+01  1.336401907391E+00  0.000000000000E+00  7.301377256398E+00  4.120004307276E-01 -5.948459131725E+01  1.338940058488E+01  1.323764294432E+01  1.356810728774E+01      152
 H   6.507445182517E+00  1.882087538607E+01  1.441946345175E+01  0.000000000000E+00 -2.481499672795E+00  2.933958216131E+01  3.538985311119E+01  2.247828668893E+01  1.597129670663E+01 -7.177009533283E+00      155
 H   1.326354669395E+01  1.437867022775E+01  3.661475680233E+01  0.000000000000E+00  5.305802577881E+00 -2.265110627719E+00  6.230844256857E+00 -5.768021204369E+00  2.257097983464E+00  5.751884267555E+00      156
 H   1.470799400072E+01  1.270073506503E+01  1.158320437572E+01  0.000000000000E+00  1.021006207475E+01 -8.073266643173E+00 -2.966738936061E+00 -7.362904353862E+00 -3.767073174048E+00  8.816653950402E+00      159
 H   1.691573933759E+01  3.190811625157E+00  1.044816660042E+01  0.000000000000E+00  1.167239678659E+01  4.467112346756E+00  7.790728451941E+00  1.297000308986E+01  1.261330688752E+01  2.086137317134E+00      160
 H   1.554595253060E+01  1.709051498958E+01  1.510639598135E+01  0.000000000000E+00  4.071779935467E+01 -2.953050167282E+01  7.524331702682E+00 -2.610216556198E+01  7.743270043950E+00  4.476330149881E+01      164
 H   1.974662393645E+01  6.774321553182E+00  6.724701302111E+00  0.000000000000E+00  1.437373289943E+01 -3.798448903268E+00  4.014155287072E+00 -3.770626192643E+00  1.178729155620E+01  4.931085379136E+00      168
 H   5.104516071200E+00  2.093709618575E+01  3.281760826481E+01  0.000000000000E+00 -6.390736610494E+00  1.413555804759E+01 -3.210537116424E+00  2.215661629936E+01 -4.993733295777E-01 -2.621276243337E+01      169
 Si  1.166604721751E+01  3.206925327477E-01  1.935057548069E+01  0.000000000000E+00  3.134205286359E+01 -1.036953592765E+02  2.256269663912E+00  6.725163997326E+01  1.360256621872E+00 -4.546048618724E+01      177
 Si  1.028065327219E+01  3.170214727999E+00  1.871969561098E+01  0.000000000000E+00  3.682923360297E+01  6.503473380361E+00 -6.554676244713E+00  2.761406455957E+01 -3.599756918260E+00  1.106223640052E+01      178
 Si  7.925316754210E+00  3.972264917639E+00  2.053542474922E+01  0.000000000000E+00  1.603910595096E+01  4.939642096877E+00  2.936292922734E+00  2.553647620985E+01  1.133215006750E+00  8.038994510277E+00      179
 O   1.053254946165E+01  1.486709501749E+00  1.885340386680E+01  0.000000000000E+00 -6.113279311951E-01 -4.541218438996E+00 -5.687593715285E+00 -3.727526003264E+00 -3.177403006229E+00  3.600794006451E+00      180
 O   1.221869341392E+01  4.762495046607E-01  2.096265040398E+01  0.000000000000E+00 -1.248338554539E+01 -2.137038181986E+00 -8.061759111122E+00  1.639576584290E+00 -4.699031899945E+00 -5.940576602252E+00      182
 O   1.057117881639E+01  3.840762969501E+00  1.703783658421E+01  0.000000000000E+00  9.650737645916E+00 -1.925714969068E+00  2.835673370324E+00 -8.464897906013E+00  1.759402381540E+00  3.504437235726E+00      184
 O   1.153775187529E+01  3.778790070509E+00  1.972353115047E+01  0.000000000000E+00 -1.301251252002E+01 -7.638334801270E-01 -3.564737168228E+01 -5.274692067787E+00 -2.085278373020E+01 -4.241651502963E+00      185
 O   8.781624766577E+00  3.600529956105E+00  1.911419301614E+01  0.000000000000E+00  5.140043387003E+00 -4.350593324144E+00 -2.146094112548E+00 -2.302381969750E+01 -9.859790153966E-01  2.109846151152E+00      187
 O   6.547544042908E+00  4.221883385043E+00  1.974310875005E+01  0.000000000000E+00  2.234683096004E+00 -4.581346572511E+00  6.652319365852E+00 -2.142409331419E+01  2.206154794912E+00  1.440932870712E+00      188
 Ca  1.267990357825E+01  2.984802680004E+00  2.157705767143E+01  0.000000000000E+00 -1.108275102634E+00 -2.800176874791E+00 -9.574735908432E+00 -9.743923543920E+00 -5.626658182725E+00 -6.497627836647E-02      190
 O   1.331024088679E+01  1.765546527225E+01  7.835668219871E+00  0.000000000000E+00 -1.574950688647E+01 -4.060074375689E+00 -1.423117999296E+01 -1.801900729623E+00 -2.417412637880E+01 -2.089104729617E+01      193
 O   4.999395287529E+00  1.144168818286E+01  1.288181800965E+01  0.000000000000E+00  6.532151350374E+00 -1.865736205384E+01 -2.401280319675E+01 -2.100570638498E+01 -9.319297559729E+00  1.494957582183E+01      194
 Si  1.865322944488E+01  1.601025170190E+00  2.001421222031E+01  0.000000000000E+00 -1.439154797699E+01  2.995959531768E+00 -2.410133884350E+01 -1.598768806799E+00 -2.246242811997E+01 -4.673636756776E+00      196
 Si  1.611318003825E+01  3.714860499952E+00  1.967684442897E+01  0.000000000000E+00  6.011666514176E+00  5.286173769357E+00 -3.955624919709E+00  2.800771542461E+01 -3.239223480429E+00  1.385526191070E+00      197
 O   2.024067142794E+01  1.963317008866E+00  2.032133900061E+01  0.000000000000E+00 -6.971761709695E+01  1.227484492333E-02  3.838124259996E+00 -9.151401146459E+00  3.822888444696E+00 -6.308035362515E+00      202
 O   1.742110463121E+01  2.739832746801E+00  1.987604940062E+01  0.000000000000E+00  3.559555163628E+01 -3.368857705931E+00 -2.695040967313E+00 -3.016783337816E+01 -2.362169147934E+00  5.136826040330E+00      205
 O   1.607759153728E+01  4.671013441586E+00  2.101357801464E+01  0.000000000000E+00 -3.362568638518E+00  5.025324334992E-01 -8.527712948915E+00  2.260752324583E+00 -6.524594975893E+00 -9.769251366008E-01      206
 Ca  1.315791672958E+01  5.404528541476E+00  1.891120624507E+01  0.000000000000E+00 -2.445807945198E+00 -5.967021357173E+00  2.082482389284E+01 -2.087944779794E+01  1.448936123584E+01 -1.004599673220E+00      209
 O   2.225613640357E+01  1.926184336278E+01  1.483027402242E+01  0.000000000000E+00  2.611709165498E+00 -2.217539190128E+00  1.130005018095E+01 -1.707350289672E+00  1.695824755593E+01  2.260335394371E+00      210
 O   1.346825417503E+01  1.758836894151E+01  3.646812283278E+00  0.000000000000E+00 -1.653274686719E+00 -5.192380076221E+01  2.715168660950E+00 -1.049962842675E+01  3.774529281531E+00 -2.159032995203E+00      212
 Si  1.418310934485E+01  3.767969997454E+00  1.457601368069E+01  0.000000000000E+00  4.590169449925E+01  4.374844686839E-01  3.329940940408E+00  3.901535164610E+00  3.240180580529E+00  1.197664784648E+01      213
 Si  1.156902069579E+01  4.795159181342E+00  1.584208493869E+01  0.000000000000E+00 -3.671829840802E+01 -6.401542263033E+00  8.477790584461E+00 -2.114919910567E+01  6.191087543448E+00 -1.521910024749E+01      214
 Si  1.036824897392E+01  6.258792535759E+00  1.330530124896E+01  0.000000000000E+00 -2.099470895176E+01  4.789945920721E+00  6.969023568399E+00  1.018274261007E+01  5.430660314280E+00 -1.267345412019E+01      215
 O   1.257580193781E+01  4.052627170555E+00  1.474269464021E+01  0.000000000000E+00 -1.316927137487E+01 -9.049427208834E-01  1.207415899291E+01 -1.816573557884E+00  1.029948973142E+01 -4.296817123905E+00      216
 O   1.488928029148E+01  3.987002997941E+00  1.606467790999E+01  0.000000000000E+00 -1.884397209134E+01 -6.970319887153E-01  9.474284254766E+00 -3.842225169259E+00  8.781083232468E+00 -5.016977455348E+00      217
 O   1.482345671305E+01  4.873927421568E+00  1.350157774269E+01  0.000000000000E+00 -1.531677980759E+01 -1.671113022217E+00  1.108531331970E+01 -4.629256949220E+00  1.217062666873E+01 -5.036131218209E+00      218
 O   1.488322941641E+01  2.333905786710E+00  1.420019979927E+01  0.000000000000E+00 -2.254018797768E+01  1.701771988809E+00  1.028831465646E+00 -7.848244567576E+00  1.078318259636E+00 -3.870170775673E+00      219
 O   1.221168150229E+01  5.738184532221E+00  1.702871527640E+01  0.000000000000E+00  2.332078690100E+00  4.124079348728E+00 -1.647114951629E+01  1.223867455158E+01 -1.181183833336E+01  1.095827619230E+00      220
 O   1.032964970212E+01  5.527587031373E+00  1.487664303890E+01  0.000000000000E+00  1.544149891529E+01 -6.533129048579E+00  2.755526354431E-01 -1.758290339549E+01  1.913309468527E-01  8.263032301238E+00      222
 O   1.177833391249E+01  6.484230544288E+00  1.264154242203E+01  0.000000000000E+00 -1.616811587044E+00 -3.827219782162E-01  5.020525780885E+00 -7.461480726847E-01  4.677706808980E+00 -8.900901566350E-01      223
 O   2.144451901178E+01  2.169492005693E+01  1.211368908089E+01  0.000000000000E+00  1.449956109654E+01 -2.616266708554E+01  8.301512977485E+00 -1.460832368911E+01  1.469593215440E+01  1.466886800666E+01      224
 Ca  1.573428339907E+01  7.413050794244E+00  6.200200157914E+00  0.000000000000E+00 -4.288105822959E+00  1.634557870685E+00 -1.462803034142E+00  1.367127549674E+00 -3.712163625369E+00 -2.020298317403E+00      225
 Ca  1.663918433149E+01  5.127790382680E+00  1.590676608751E+01  0.000000000000E+00  1.340241421378E+01  8.804170085883E-01 -6.304368407998E+00  2.731115425931E+00 -6.594649563414E+00  4.130296854760E+00      226
 Si  2.169942114664E+01  2.404909048353E+00  2.040445474761E+01  0.000000000000E+00  1.145095548585E+02  4.455822472912E+00 -5.027531322070E+01  3.174093111821E+01 -5.346603025414E+01  1.409242839692E+01      228
 Si  2.289051554947E+01  5.075172919547E+00  2.153095115629E+01  0.000000000000E+00 -9.270559523464E+00  4.797627803678E+00 -5.561156590046E+00  2.035349170256E+01 -5.912313881233E+00 -2.055423021856E+00      229
 O   2.268784738374E+01  9.365993469784E-01  2.024115515242E+01  0.000000000000E+00  1.124677404392E+01 -1.572658964065E+00  4.711369067658E+01 -5.689459447306E-01  5.280865719894E+01 -2.932290814750E+00      230
 O   2.190231550393E+01  3.706584902964E+00  2.173665929501E+01  0.000000000000E+00  1.394115878648E+00 -4.598132336733E+00 -3.430739725040E+01 -2.629056302133E+01 -3.456885570587E+01  1.994703384274E-01      236
 O   2.354333795057E+01  5.201686125201E+00  2.310997873388E+01  0.000000000000E+00  2.163723690437E+01  6.680561511181E-01 -1.736529304471E+01  2.968030571967E+00 -1.769092769276E+01  4.780550456755E+00      237
 H   1.316371310276E+01  1.662559530776E+01  3.855893799549E+00  0.000000000000E+00  6.729087128175E+00  3.073524332237E+01  3.153953775043E-01  6.897767065220E+00 -1.080657090778E+00  8.498747922444E+00      243
 H   1.887851871371E+01  1.943115098029E+01  7.845004704016E+00  0.000000000000E+00 -3.034517682332E+00 -2.867502939495E+01  4.941967624778E+00 -1.157706719068E+01  1.189253949576E+01 -3.123347341597E+00      247
 H   1.515148908220E+01  7.672571637843E+00  8.878883407610E+00  0.000000000000E+00 -2.667736751975E+00  2.348631884193E+00  3.226883497675E+00  2.717892989659E+00  5.506558408305E+00 -1.350916812823E+00      248
 H   5.799427178628E+00  1.126134779452E+01  9.775661386488E+00  0.000000000000E+00  2.075705171051E+00  1.177257834470E+00 -5.018080075463E+00  1.021944634368E+00 -2.976984249311E+00  4.030611494914E+00      249