     8448
Lattice="     49.70      0.00      0.00      0.00     49.70      0.00      0.00      0.00     49.70" pbc="T T T" config_type=md Properties=species:S:1:pos:R:3:charge:R:1:forces:R:3:id:I:1
 Si  1.097713871979E+01  1.736523371757E+01  1.652755073887E+01  0.000000000000E+00  1.260804821761E+01 -2.838103226040E-01 -9.505688030788E+00 -2.701195724368E-01 -6.313413148121E+00  1.994524343820E+01        1
 Si  1.283035546944E+01  1.982744677977E+01  1.693856735176E+01  0.000000000000E+00 -1.144393781751E+01  3.815250605686E+00 -1.019148077223E-01  3.259364660820E+00 -7.719680085821E-02 -1.768494010692E+01        2
 Si  1.115634467942E+01  2.263575219135E+01  1.824163862198E+01  0.000000000000E+00  1.880495056604E+01 -1.377293046311E+01 -6.782035970162E+01 -1.109929187022E+01 -4.147803411708E+01  3.815445051358E+01        3
 O   1.216122469896E+01  1.835230162631E+01  1.729305421296E+01  0.000000000000E+00 -1.409876692653E+01  3.187450854855E+00 -2.697190883779E+01  3.003479430347E+00 -1.896781447029E+01 -2.127621432872E+01        4
 O   9.883949319225E+00  1.816518665039E+01  1.569556429181E+01  0.000000000000E+00 -5.023406466338E+00  3.273926272157E+01 -1.356220747519E+01  2.828824238379E+01 -8.540513029630E+00 -9.232252527266E+00        5
 O   1.151976694040E+01  1.616993965921E+01  1.559270873883E+01  0.000000000000E+00  3.676189419936E+01  1.667368505666E+00 -5.168421308076E+01  1.607847154479E+00 -3.818387806509E+01  5.160153100644E+01        6
 O   1.023108911252E+01  1.651136147663E+01  1.758927349915E+01  0.000000000000E+00 -8.204758266099E+00 -1.853012474662E+01  5.790738260890E+01 -1.973982779088E+01  3.368277784602E+01 -1.324118361887E+01        7
 O   1.347757391180E+01  2.017507306367E+01  1.529017358131E+01  0.000000000000E+00 -1.095547723701E+01 -6.148750620721E+00  1.118997469795E+01 -4.659981354331E+00  9.863440088550E+00 -1.639965435549E+01        8
 O   1.427476181970E+01  1.958927081314E+01  1.762180971349E+01  0.000000000000E+00  1.329764793669E+01  1.064799830331E+01  2.183870479839E+00  9.578559698336E+00  1.769070909948E+00  1.824837639323E+01        9
 O   1.195130153189E+01  2.111344132258E+01  1.752200978849E+01  0.000000000000E+00  5.803848899990E+00 -2.319869585800E+01  6.876929383217E+00 -1.925255905437E+01  4.690572466541E+00  1.025321157433E+01       11
 O   1.902528852595E+01  1.786415921152E+01  2.075804293860E+01  0.000000000000E+00 -3.512319018247E+01  5.934653473791E+00  1.319732782376E+01  6.896030771785E+00  1.209569564728E+01 -3.297959242932E+01       13
 Ca  3.764970960453E+00  1.604023465051E+01  1.746575001742E+01  0.000000000000E+00 -4.957266281207E+00 -5.351481903993E+00 -4.288091970205E+00 -5.827074677795E+00 -9.243543350542E-01 -2.111987455172E+01       14
 Ca  2.262134272501E+01  1.306232419072E+01  1.831116602957E+01  0.000000000000E+00 -7.589500977499E+00  2.495145493041E+00 -7.336824106906E+00  3.497771355534E+00 -9.063803603080E+00 -4.382433148157E+00       15
 O   6.260790654109E+00  4.415602768364E+00  1.631654701818E+01  0.000000000000E+00 -1.601754839242E+01  8.463921619172E-01  5.838284165342E+00  3.128418474959E+00  2.240196709370E+00 -1.129688690279E+01       16
 O   9.909032408317E+00  1.681418907620E+01  2.028947415823E+01  0.000000000000E+00 -1.598105714542E+01 -1.294190823591E+01  3.447543014272E+01 -1.561684072427E+01  1.683721085676E+01 -2.711753331790E+01       18
 Si  2.029997643794E+01  1.972713814085E+01  1.817717900905E+01  0.000000000000E+00 -4.838172408654E+01 -1.611570616854E+01  5.554498215582E+00 -1.484949686018E+01  6.203172827022E+00 -4.701645627352E+01       19
 Si  1.800356388462E+01  2.157957505461E+01  1.824678917245E+01  0.000000000000E+00  4.637906236435E+00  2.704399981374E+01  1.772710210474E+01  2.286727897710E+01  1.749080411988E+01  5.559124091585E+00       20
 O   1.861425029186E+01  2.010302890253E+01  1.835652811971E+01  0.000000000000E+00  3.047779167634E+01 -3.373774983833E+01 -5.638761332238E+00 -3.080669866246E+01 -5.717928471543E+00  3.291542325627E+01       22
 O   2.114222663546E+01  2.098563258208E+01  1.823558849822E+01  0.000000000000E+00  3.947682664746E+01  5.359172303238E+01 -1.858998601642E+00  4.656884200686E+01 -2.155311288952E+00  3.918443377864E+01       23
 O   2.040223687337E+01  1.912839073675E+01  1.670707140209E+01  0.000000000000E+00  6.609598434716E+00 -3.006528070222E+01 -1.398340827091E+01 -2.625954259971E+01 -1.707617098018E+01  6.196917634914E+00       24
 O   2.119689535911E+01  1.875310463903E+01  1.935538054135E+01  0.000000000000E+00 -1.358181799982E+01  2.172833389704E+01 -2.129431419147E+01  2.242616245161E+01 -2.332030355570E+01 -1.201596978349E+01       25
 O   1.840954872089E+01  2.206494894499E+01  1.986658254370E+01  0.000000000000E+00  1.782715715381E+01  1.320614143774E+01  1.144481284588E+00  1.189039229643E+01  1.060543952258E+00  2.136691770108E+01       26
 O   2.156719215007E+01  1.714272047828E+01  2.121429461711E+01  0.000000000000E+00  7.486524537482E+00 -3.445785436437E-01  7.845169276921E+00 -4.264195261688E-01  7.975672832824E+00  5.950677149199E+00       27
 O   1.873235057404E+01  2.255787474069E+01  1.695989873960E+01  0.000000000000E+00 -1.673616211994E+01 -2.451359188890E+01  2.349111858739E+01 -1.843028392341E+01  2.594613774007E+01 -2.015402430406E+01       29
 Ca  4.758478676254E+00  9.822640234218E+00  1.373651782166E+01  0.000000000000E+00 -4.725080553538E-01  2.349861655578E+00 -1.033050295623E-01  3.286175177001E+00 -3.578598205922E-02 -9.753698505935E-01       32
 Si  1.226247920410E+01  1.852314818444E+01  1.165500082653E+01  0.000000000000E+00  5.690874843644E+01  3.178109552508E+01  2.194523995459E+01  1.999707020236E+01  2.308906301916E+01  8.596378943719E+01       37
 Si  1.253816973185E+01  2.084086362649E+01  1.404500377131E+01  0.000000000000E+00 -2.544364756626E+01 -1.901822976477E+01 -3.311185976366E+00 -1.281670057235E+01 -2.955941661632E+00 -4.229226437587E+01       38
 O   1.166140532561E+01  1.968118657261E+01  1.309120042685E+01  0.000000000000E+00  1.484250704992E+01 -3.059733927955E+01 -1.800729684607E+01 -2.035222315277E+01 -1.604057538604E+01  2.504999545921E+01       40
 O   1.332288946948E+01  1.747811061189E+01  1.219953921810E+01  0.000000000000E+00 -7.477954150083E+00  1.990203717011E+01  2.458775038522E+00  1.389141471685E+01  2.685182405902E+00 -9.810222481028E+00       41
 O   1.299304936917E+01  1.954888431870E+01  1.033021793004E+01  0.000000000000E+00  4.460078413951E+00 -2.018775418740E+01  7.697417500646E+00 -1.066781596709E+01  9.681589127968E+00  6.710476847226E+00       42
 O   1.103473998513E+01  1.801681484133E+01  1.089709808151E+01  0.000000000000E+00 -3.315612209467E+01 -1.592659053898E+01 -3.908269870931E+00 -9.632869113426E+00 -3.957635463573E+00 -5.413518700406E+01       43
 O   1.294242762257E+01  2.197850660133E+01  1.302675761444E+01  0.000000000000E+00  3.415461322686E+01 -1.878978167370E+01  6.211553662628E+00 -1.113678631272E+01  6.171342561340E+00  5.800050919067E+01       44
 O   1.131804855309E+01  2.154595967398E+01  1.480848277665E+01  0.000000000000E+00 -4.317685849767E+00 -7.798257735692E+00  9.653313371296E+00 -5.359722524051E+00  7.377978627683E+00 -8.219498685447E+00       46
 O   8.769540006913E+00  2.140975508359E+01  1.564720708433E+01  0.000000000000E+00 -3.994226088925E+00 -1.606995928058E+01  2.307950045599E+00 -1.174464535994E+01  1.293499865488E+00 -9.751412530755E+00       47
 O   1.716961802955E+01  1.599578524828E+01  1.031069957252E+01  0.000000000000E+00  2.087461363459E+01 -1.980327085442E+01 -1.101269817463E+01 -1.276496109219E+01 -1.833860251705E+01  1.944748195708E+01       48
 Ca  7.271553195161E+00  2.156946632502E+01  1.352583526109E+01  0.000000000000E+00  5.112011466239E+00 -3.781413707719E+00  6.349953147815E+00 -2.371258430503E+00  3.413764932798E+00  1.516365984196E+01       49
 Si  2.089255116128E+01  2.091134196171E+01  2.320190313714E+01  0.000000000000E+00 -3.352058764243E+01 -1.316942010495E+00  7.796111343863E+01 -1.461195604791E+00  7.020142018006E+01 -3.355073612300E+01       51
 Si  1.957365355567E+01  2.275864215726E+01  2.089579600405E+01  0.000000000000E+00 -1.736415761406E+01 -3.618657210251E+00 -2.718984178315E+01 -3.322461961988E+00 -2.546945534852E+01 -2.018962113417E+01       52
 O   2.036382914567E+01  2.205061868039E+01  2.226535903325E+01  0.000000000000E+00 -3.283125254369E+01  5.789585721060E+01 -6.707802536617E+01  5.845967707373E+01 -6.134935645751E+01 -3.555075155374E+01       54
 O   1.951387375854E+01  1.990900643338E+01  2.331350078338E+01  0.000000000000E+00  1.753281478967E+01  2.808599302439E+00 -1.087062987783E+01  3.288877436287E+00 -9.098938039493E+00  1.788783338265E+01       55
 O   2.194688046375E+01  1.997246985031E+01  2.257297743593E+01  0.000000000000E+00  5.440568210725E+01 -3.699066957834E+01 -3.183486356289E+01 -4.180702516965E+01 -3.095187363643E+01  4.951117528375E+01       56
 O   2.148497417246E+01  2.171312618185E+01  2.458820836780E+01  0.000000000000E+00 -2.183054162858E+01 -3.085074526099E+01 -1.561677820803E+01 -3.493575943078E+01 -1.364581231124E+01 -2.206236326814E+01       57
 O   1.634840596603E+01  2.135945034814E+01  1.824508681727E+01  0.000000000000E+00  2.550182470837E+01  2.096132317551E+01 -1.907113367591E+01  1.790500948801E+01 -1.708858054164E+01  3.331853636233E+01       58
 O   1.711049776321E+01  1.810090095514E+01  1.418614344882E+01  0.000000000000E+00 -2.237138642494E+01  1.303371515657E+01  2.744624137858E+01  1.021485910234E+01  3.310405350200E+01 -2.366630448225E+01       59
 H   2.677895845384E+00  8.398713644075E+00  1.492860901069E+01  0.000000000000E+00 -7.069362810892E-01  5.616071726751E+00 -7.825812100041E-01  9.982497622573E+00 -2.050631111081E-01 -3.009824384007E+00       70
 H   1.470059085589E+01  1.985240835455E+01  1.847257045944E+01  0.000000000000E+00 -4.188036375095E+00 -1.627848127441E+00 -4.080975065435E+00 -1.514704850635E+00 -3.247666309449E+00 -5.655732421718E+00       73
 H   1.614615629241E+01  1.140168717735E+01  1.830751411450E+01  0.000000000000E+00 -7.726671187339E+00  1.942985855910E+01  3.202814982558E+01  3.119822569069E+01  2.824695420724E+01 -5.456226621667E+00       83
 Si  2.352105553985E+00  2.115501232603E+01  2.179104353396E+01  0.000000000000E+00  6.699529559247E-01 -6.131401249844E+00  1.225064946724E+01 -6.315743498534E+00  5.974476266463E-01 -3.762525411137E+01       89
 Si  2.867817358148E+00  2.072542359586E+01  1.877638026939E+01  0.000000000000E+00  6.346758213879E+00  6.444379332406E+01 -4.563445677215E+01  5.838342284576E+01 -9.554757802528E+00  5.060151410213E+01       90
 O   2.176841575164E+00  2.060600737949E+01  2.016241782159E+01  0.000000000000E+00 -3.536731317740E+00 -6.748825592508E-01  4.071779967998E+01 -6.603542301776E-01  5.013037183843E+00 -4.442838838036E+01       92
 O   1.341488148201E+00  2.036897153214E+01  2.287761193301E+01  0.000000000000E+00  9.370789080640E+00  3.079934493424E-01 -2.253636566056E+01  3.459258903106E-01 -1.090544771645E+01  9.188978606232E+00       95
 O   2.358339098945E+00  1.965520872526E+01  1.774515448178E+01  0.000000000000E+00 -2.316335843462E+00 -3.080543971791E+01 -2.556053940703E+01 -2.781182811714E+01 -3.632889721595E+00 -2.018146117181E+01       96
 O   4.463417187970E+00  2.046572541290E+01  1.898082300506E+01  0.000000000000E+00 -2.782218019993E-01  3.380921096576E+00 -1.276655400280E+01  3.135616433500E+00 -2.991348886828E+00 -4.783833355907E-01       97
 O   1.130768034230E+01  1.374946291947E+01  2.117400259008E+01  0.000000000000E+00  1.185339274021E+01 -3.342837647795E+00 -1.485140717296E+01 -5.147928571989E+00 -7.931186568569E+00  1.441301655315E+01       98
 O   3.829434033910E+00  1.247367949478E+01  2.046089971721E+01  0.000000000000E+00  4.377443936932E+00  1.821838587357E+00  7.243226229635E+00  2.988409045819E+00  1.355632324210E+00  1.425872131291E+01      101
 Ca  2.211874564851E+01  2.422091440587E+01  1.863492312433E+01  0.000000000000E+00 -2.040939551587E+01  1.660924679063E+01 -3.356746782008E+01  1.277870983357E+01 -3.984294852323E+01 -2.234910739157E+01      102
 O   1.679116272670E+01  4.618539488123E+00  1.181520944325E+01  0.000000000000E+00 -2.307235988417E+01 -3.500625620304E+00  3.020234575257E+01 -8.955347246169E+00  4.292200698562E+01 -6.346231463756E+00      105
 Si  5.679756896246E+00  1.598292884244E+01  2.024323281355E+01  0.000000000000E+00 -5.821357976961E+00 -1.428592127991E+01  3.530081389706E+01 -1.809388212112E+01  9.904546522863E+00 -1.638139660055E+01      107
 Si  8.535472395849E+00  1.674795879265E+01  2.124087249373E+01  0.000000000000E+00  2.497284776509E+01 -7.582085265549E+00 -1.122911354745E+01 -9.616103571550E+00 -4.512328236159E+00  4.900071207636E+01      108
 Si  7.595770488895E+00  1.932826022336E+01  2.065646454840E+01  0.000000000000E+00  6.532396232105E+00  4.209698250787E+01 -4.962007232005E+01  4.498981370903E+01 -1.824623376872E+01  1.662238932058E+01      109
 O   7.272957489692E+00  1.597957421538E+01  2.061782395901E+01  0.000000000000E+00  1.448939628292E+00  8.643222030956E+00 -1.603081351601E+01  1.115201368140E+01 -5.654885086754E+00  3.183496996470E+00      110
 O   4.928029555623E+00  1.697377167094E+01  1.915375189051E+01  0.000000000000E+00  5.609287311173E+00 -4.460595537330E+00  1.751999225272E+01 -5.033479998569E+00  4.507682887886E+00  1.932024980409E+01      111
 O   4.935898156526E+00  1.607358384221E+01  2.180866599750E+01  0.000000000000E+00  5.345158486200E+00  3.071683929093E+01 -4.552093351594E+01  4.167665998889E+01 -1.030263345087E+01  1.740632613423E+01      112
 O   5.430395087714E+00  1.439422281400E+01  1.991264057413E+01  0.000000000000E+00  1.082712552559E+00 -1.216130152500E+01  9.791965079612E+00 -1.682366803057E+01  2.670376079428E+00  2.869921151836E+00      113
 O   8.923563903575E+00  1.579430044564E+01  2.268209974524E+01  0.000000000000E+00 -7.204412011808E+00  9.995734507875E+00 -2.759279155862E+01  1.435481412519E+01 -1.085552226280E+01 -1.275148013487E+01      114
 O   1.173110157826E+01  1.287714922293E+01  3.717145630492E+01  0.000000000000E+00  4.478975788934E+00  6.236936263478E+00 -1.166098570277E+01  1.800367455412E+01 -3.680141199197E+00  4.916540805244E+00      115
 O   8.175624940939E+00  1.826043736062E+01  2.178326348429E+01  0.000000000000E+00  3.730007150459E+00  2.609028844872E+00 -1.807977464381E+01  3.112365911264E+00 -6.785643327092E+00  8.331052661745E+00      117
 O   6.065648275008E+00  1.956037347172E+01  2.115975370106E+01  0.000000000000E+00  2.893448708791E+00 -9.255319196938E+00 -1.894427516712E+01 -1.001209281178E+01 -5.430559902166E+00  9.330731819454E+00      118
 O   6.838791572192E+00  9.917361427743E+00  2.242268780362E+01  0.000000000000E+00 -7.643240288716E+00  1.897540463004E+01  5.430014632953E+01  4.290249751071E+01  1.656123415442E+01 -1.108394306540E+01      119
 Ca  2.319836546053E+01  1.896767903823E+01  2.087962249678E+01  0.000000000000E+00 -3.080842787306E+00  1.465191662443E+00  5.606871844386E+00  1.612883091051E+00  6.229531312479E+00 -2.518989420021E+00      120
 Ca  3.086043115522E+00  1.236348838609E+01  1.770491083391E+01  0.000000000000E+00 -1.271455156778E+00  4.857967818050E-01 -8.738186236140E-01  6.956765304957E-01  7.289487039412E-01  4.007826305462E+00      121
 Si  1.364295183807E+00  1.707500260862E+01  1.456314144490E+01  0.000000000000E+00  5.334531695520E+00 -5.046451540199E+01  4.412130975040E+01 -4.304080605975E+01  4.148281178882E+00  7.033512533110E+01      125
 Si  2.719314189294E+00  1.892512157968E+01  1.635631478970E+01  0.000000000000E+00  4.540521337343E+00  2.210673872068E+01 -2.885662919043E+01  1.910607421816E+01 -5.013449994936E+00  3.447747704549E+01      126
 Si  3.230483583221E+00  2.072967223425E+01  1.353248434915E+01  0.000000000000E+00  4.967475148698E-01  9.236200262603E+00 -2.969771032902E+01  6.029460287019E+00 -8.294834673380E+00  1.154897505640E+01      127
 O   1.416378455113E+00  1.810876479720E+01  1.598171955908E+01  0.000000000000E+00 -2.256843835598E+00 -1.946110361604E+01 -3.528186091714E+01 -1.717521342758E+01 -4.186873189049E+00 -2.167140681057E+01      128
 O   2.836897194311E+00  1.651477496536E+01  1.381239385492E+01  0.000000000000E+00 -5.702541418736E+00  3.483438623493E+01  1.313034713748E+01  2.913429116537E+01  2.754734698870E+00 -3.674006165393E+01      129
 O   9.787060413827E-01  1.555311527631E+01  1.535539130459E+01  0.000000000000E+00  6.447617112864E+00  2.020509430002E+01  7.122156746445E+00  1.994823055130E+01  4.286377009945E+00 -1.811590764190E+01      131
 O   3.943089318668E+00  1.786459943352E+01  1.629740182323E+01  0.000000000000E+00  1.898726888053E+00  1.844853016161E+01  7.191947818543E+00  1.683010639061E+01  1.740062184838E+00  8.602390802596E+00      132
 O   2.774098184883E+00  5.231981117032E+00  8.935184059703E+00  0.000000000000E+00 -2.371825763743E+00 -4.995965102432E+00 -1.404203929955E-01 -8.532115607368E+00 -1.583572296055E-01 -1.136094861907E+01      133
 O   3.184855008190E+00  2.014661352127E+01  1.500389540251E+01  0.000000000000E+00 -2.631622942429E+00 -3.284340991509E+01  4.805249728110E+01 -2.445964859094E+01  1.027836266992E+01 -8.846675223338E+00      134
 O   1.878315780571E+00  2.154277072378E+01  1.314383163596E+01  0.000000000000E+00  1.441039793577E+01 -1.703060465317E+01 -1.150416705162E+00 -1.039083612271E+01  9.322743709398E+00 -4.260827936617E+01      135
 O   8.003265827132E+00  1.633604291758E+01  1.254905784532E+01  0.000000000000E+00  1.544359976430E+01 -5.368322456925E+00 -3.132040554097E-01 -4.123849905644E+00 -1.997484866575E-01  3.152304496700E+01      136
 Si  9.031175614394E+00  1.390152509868E+01  2.623160349577E+01  0.000000000000E+00  1.395710413957E+01  4.723411764569E+01 -4.856789607633E+01  8.912882843855E+01 -1.672124995171E+01  2.148391768529E+01      139
 Si  8.381813027928E+00  1.613165505235E+01  2.422838359680E+01  0.000000000000E+00  1.037931169478E+01 -3.333328938368E+00  2.403105991055E+01 -5.006378571264E+00  8.313548868349E+00  1.997604520444E+01      140
 O   7.957301380547E+00  1.477173559933E+01  2.507026047249E+01  0.000000000000E+00  1.197427772004E+01 -1.641362144372E+01  3.590194694382E+01 -2.785683253832E+01  1.139527897183E+01  2.222875017727E+01      142
 O   8.351902714447E+00  1.252632772169E+01  2.659797883218E+01  0.000000000000E+00 -1.455174837773E+01 -1.287917035109E+01  2.839442349414E+00 -2.734719288727E+01  8.915995615764E-01 -2.182496316532E+01      143
 O   6.996035873269E+00  1.695660326412E+01  2.399562315009E+01  0.000000000000E+00  4.440760101368E+00 -1.082166251089E+01 -1.591085133824E+00 -1.531394769483E+01 -4.638882934624E-01  1.076326774106E+01      148
 O   1.369787944924E+01  1.491888712647E+01  1.230055581228E+00  0.000000000000E+00 -1.331903879995E+01  9.542807714907E+00  2.320432179695E+01 -1.954119889016E+01 -7.205097967136E+00 -1.450627721071E+01      150
 Ca  5.711637996799E+00  1.126298638185E+01  8.388177727864E+00  0.000000000000E+00 -8.453385202176E-01 -1.830330883915E+00 -1.487354456054E+00 -1.363150077126E+00 -1.012762306846E+00 -1.666953726163E+00      151
 Ca  1.286947511982E+01  2.228310230153E+01  1.579993333981E+00  0.000000000000E+00  6.164323734661E+00 -1.567691402637E+01 -7.823422223494E+00 -4.797371600448E+00  1.108812858168E+01  1.067333788832E+01      152
 H   7.570980500345E+00  1.924649785447E+01  1.547326459806E+01  0.000000000000E+00 -2.315459153688E+01 -2.580290667910E+00  1.820853586039E+01 -2.074430400085E+00  8.909333196310E+00 -5.886223010554E+01      155
 H   1.168671979216E+01  1.300249477645E+01  3.616032125995E+01  0.000000000000E+00  8.773015716969E+00  3.274940379081E-01  6.529517719507E+01  9.107705732687E-01  2.110286670775E+01  9.760744936332E+00      156
 H   1.753621136111E+01  1.759083453660E+01  1.350760476569E+01  0.000000000000E+00  3.662755953853E+00 -2.256557215332E+01 -4.350659989685E+00 -1.732759348766E+01 -5.648232566976E+00  3.674164995244E+00      159
 H   1.665405375908E+01  3.746199216742E+00  1.141064517438E+01  0.000000000000E+00  2.683849518920E+00 -7.136984758439E-01 -7.603407977076E+00 -3.356345480716E+00 -1.109731862373E+01  5.745521686570E-01      160
 H   1.610574888300E+01  1.738833203334E+01  2.122835377639E+01  0.000000000000E+00 -1.563699189855E+01  2.847450143601E+01 -7.019000845982E+00  3.476278167055E+01 -5.325248779331E+00 -1.688224553294E+01      164
 H   1.765092117304E+01  6.995036644951E+00  3.902862161562E+00  0.000000000000E+00  3.096103622682E+01 -1.856910621395E+01  6.302966421371E+00 -1.051749335553E+01  3.035641218751E+01  1.226981758340E+01      168
 H   5.878170037865E+00  2.175428303854E+01  3.062854146219E+01  0.000000000000E+00  7.626814930900E+00  3.756037648383E+01 -4.957371296033E+01  5.288243912394E+01 -9.514090461961E+00  2.822577258237E+01      169
 Si  1.252398252027E+01  8.735654701169E-01  1.977154813354E+01  0.000000000000E+00 -3.797781283048E+01 -1.209055491763E+02  3.269092120926E+00  1.228143685613E+01  2.070756033017E+00 -1.386349889095E+02      177
 Si  1.074875391993E+01  3.408159455818E+00  1.910597384847E+01  0.000000000000E+00 -7.762433776967E+00 -3.469254345067E+00 -7.443509020388E+00 -1.987641792129E+01 -4.187614166934E+00 -2.642625298046E+00      178
 Si  8.098178113031E+00  4.070742544769E+00  2.034469280291E+01  0.000000000000E+00 -9.398675581363E+00  2.493029717501E+00  2.636869612515E+01  1.245962455087E+01  1.049602468312E+01 -4.724468642148E+00      179
 O   1.124685703252E+01  1.795364153939E+00  1.914237006996E+01  0.000000000000E+00  6.912493548499E+00  3.798817283866E+01  1.207518634103E+00  2.401653527115E+01  7.094622762084E-01  1.674601708498E+00      180
 O   1.274037354847E+01  1.282337775891E+00  2.128128365029E+01  0.000000000000E+00 -3.146433833769E-01  6.991796307003E+00  3.704581239110E+01  1.704753764169E+01  2.217805542301E+01  4.369995081431E+00      182
 O   1.149738042459E+01  3.869787240401E+00  1.766062345586E+01  0.000000000000E+00 -9.911306147430E+00 -7.157948017035E-01 -3.105511469017E+01 -2.786248332112E+00 -2.021743278852E+01 -3.515189708291E+00      184
 O   1.152525487443E+01  4.262051515451E+00  2.020238214283E+01  0.000000000000E+00 -5.154492687544E+00 -4.724305262875E-01  1.058235509457E+01 -2.886667918381E+00  6.037126650428E+00 -1.948358724871E+00      185
 O   9.011997539972E+00  3.547259412489E+00  1.915143523158E+01  0.000000000000E+00  2.970487757973E+01 -6.687011535235E-01 -3.774703194112E+01 -2.502003198303E+00 -1.776243685558E+01  1.178583570616E+01      187
 O   6.621640719442E+00  4.484262563773E+00  1.986855528394E+01  0.000000000000E+00 -1.381699223351E+00  1.058683955669E+00 -1.467893816850E+01  4.690742435861E+00 -4.892084668748E+00 -9.357049656098E-01      188
 Ca  1.145865316947E+01  3.049946971957E+00  2.239276941638E+01  0.000000000000E+00  3.103986686988E+00 -4.429980683379E+00 -7.845470725385E+00  3.331918972086E+00 -4.014623038440E+00  5.668409128406E-01      190
 O   1.574887920737E+01  2.045886242646E+01  8.773935495969E+00  0.000000000000E+00 -4.605216007454E+01  8.030001947154E+00  1.240801649605E+00  3.443726129451E+00  2.227191584541E+00 -5.982487991688E+01      193
 O   4.577185525299E+00  1.213154182684E+01  1.268810014349E+01  0.000000000000E+00 -1.855695424253E+00 -1.078408544610E+00  1.099566881424E+01 -1.127882655388E+00  3.966856203576E+00 -4.914641602562E+00      194
 Si  1.788039380724E+01  1.860506650235E+00  1.991505425566E+01  0.000000000000E+00 -6.591969609885E+00  4.982420490908E-01 -5.397887571373E+00  2.891385114883E+01 -4.846401835732E+00 -3.922479618330E+00      196
 Si  1.536118429833E+01  3.421321972333E+00  1.982977012384E+01  0.000000000000E+00  2.316195695955E+01 -4.420985648320E+00  2.287378566078E+01 -2.544859486821E+01  1.771923905024E+01  5.142899417627E+00      197
 O   1.910843753721E+01  2.938817299365E+00  2.026784963829E+01  0.000000000000E+00  2.379900499424E+00 -5.402139891792E-01 -1.018650753405E+01 -9.909908361474E+00 -9.603793515860E+00  3.318077408862E-01      202
 O   1.639474019039E+01  2.144308130358E+00  2.053926919571E+01  0.000000000000E+00  1.935207955076E+00  3.193050051407E+00 -2.469293629680E+01  1.873815383372E+01 -1.971025703332E+01  6.332678799006E-01      205
 O   1.455447099977E+01  4.046441693191E+00  2.107230186400E+01  0.000000000000E+00  1.667870413158E+00  2.560587270015E+00 -1.985320130846E+01  1.333454723780E+01 -1.371244795948E+01  4.637022107330E-01      206
 Ca  1.326645832226E+01  5.003587822561E+00  1.892496683651E+01  0.000000000000E+00  2.477512010525E+00  2.242900867892E+00  9.002037469538E+00  8.483277609526E+00  6.310455174729E+00  9.344203724148E-01      209
 O   2.269848093985E+01  1.905769741442E+01  1.453439341234E+01  0.000000000000E+00  5.113243450485E+01 -3.323667961296E+01  1.878752606122E+01 -2.534802430272E+01  2.934063294624E+01  4.293091099084E+01      210
 O   1.311707063149E+01  1.719076203622E+01  3.798411837974E+00  0.000000000000E+00 -9.735888993642E+00 -7.891873687226E+00 -4.460535434454E-01 -1.730645918812E+00 -4.894817665426E+00 -1.275950672241E+01      212
 Si  1.295256459120E+01  3.934044291152E+00  1.393919037555E+01  0.000000000000E+00  1.143888007252E+01  9.065248574605E+00  4.534550269875E+00  3.241932228499E+01  4.213591584603E+00  3.489619781864E+00      213
 Si  1.148585837587E+01  5.154451683868E+00  1.647337016786E+01  0.000000000000E+00  1.042685765713E+01 -1.588347631988E+00  5.534476423657E+00 -5.076279709608E+00  3.858846838198E+00  4.679209184849E+00      214
 Si  9.652692044875E+00  6.789274794980E+00  1.440600797117E+01  0.000000000000E+00 -3.670500367803E+00  1.385564005311E+01  1.371298804620E+01  2.939996790207E+01  9.188336622468E+00 -2.581666908696E+00      215
 O   1.279194948863E+01  4.772534012946E+00  1.556381277539E+01  0.000000000000E+00 -7.952679370848E+00 -4.104516147164E+00 -2.256734929740E+01 -1.338532542141E+01 -1.854817945132E+01 -2.967056180543E+00      216
 O   1.357532414074E+01  2.587094408351E+00  1.436351153236E+01  0.000000000000E+00  1.894233341849E+01 -3.980394515918E+00  1.718397869976E+01 -3.757427576934E+01  1.624102019561E+01  3.049076756553E+00      217
 O   1.385132568007E+01  4.713881589903E+00  1.283476618873E+01  0.000000000000E+00 -1.067439079182E+01  1.227588877668E+00  8.996529700264E+00  3.342429358960E+00  9.709087102675E+00 -3.632707467804E+00      218
 O   1.142820033977E+01  3.858096153848E+00  1.325946641271E+01  0.000000000000E+00 -2.760230762626E+00  3.381246483786E-02  7.369980788730E+00  1.162063421881E-01  6.352112093525E+00 -9.318383798329E-01      219
 O   1.178722273672E+01  6.267909673504E+00  1.761922861756E+01  0.000000000000E+00  1.197473109936E+01  6.219617091705E+00  7.908569925362E+00  1.748347713364E+01  5.290814783245E+00  6.367618104089E+00      220
 O   1.026945554262E+01  5.780965149600E+00  1.568722161861E+01  0.000000000000E+00 -5.654617391163E+00  2.678987152667E+00 -2.699077726566E+01  7.269697029779E+00 -1.766919559941E+01 -3.183143053393E+00      222
 O   1.040129437293E+01  7.444782765584E+00  1.302728356082E+01  0.000000000000E+00 -1.201726905284E+01 -1.359258720562E+01  3.791461737608E+01 -2.378504429589E+01  3.027193616569E+01 -8.601425392485E+00      223
 O   2.135525922048E+01  2.076868012709E+01  1.234405434800E+01  0.000000000000E+00 -4.910751962711E+01  9.869694733315E+00  2.211282692350E+01  5.866143030790E+00  3.825527154499E+01 -4.775865075860E+01      224
 Ca  1.618876797322E+01  6.392066419949E+00  6.052254522093E+00  0.000000000000E+00 -2.703998201835E+00  1.147110073448E+00  4.440821828171E+00  1.086127970713E+00  1.187845519785E+01 -1.067662229401E+00      225
 Ca  1.692660982170E+01  3.473118363053E+00  1.643990150504E+01  0.000000000000E+00 -8.629614678443E+00  4.490024606808E+00  1.460024788930E+01  2.961406442768E+01  1.503249269750E+01 -1.289794849661E+00      226
 Si  2.071498373048E+01  2.524030766507E+00  1.986482873751E+01  0.000000000000E+00 -8.355843167564E+00  2.466471643150E+00  8.196253340935E+01 -5.945264577822E+00  8.547028361122E+01 -1.193702905415E+00      228
 Si  2.252306278046E+01  4.911040075877E+00  2.079571829718E+01  0.000000000000E+00  2.498008222832E+01 -1.190337860197E+00 -7.456586108801E+00 -5.040466059465E+00 -8.075948839874E+00  5.446780756142E+00      229
 O   2.115227431538E+01  1.511954540364E+00  2.126240298862E+01  0.000000000000E+00  9.054970647106E+00 -4.902883835628E+00 -3.512648275223E+01 -1.369377871362E+01 -3.494454504072E+01  8.033289662742E+00      230
 O   2.167292018454E+01  3.862085827302E+00  1.983980318407E+01  0.000000000000E+00 -3.617717460103E+01 -2.718789371530E+00  2.098667361680E+01 -1.176140250262E+01  2.292575677370E+01 -6.517171707682E+00      236
 O   2.283236775647E+01  4.690751954003E+00  2.247195046799E+01  0.000000000000E+00  2.164157334865E+01  2.478652025044E+00 -3.910170776250E+00  1.225357430901E+01 -3.972884208743E+00  4.450222105098E+00      237
 H   1.254991755870E+01  1.632195480053E+01  3.522644627778E+00  0.000000000000E+00  2.678755553451E+01 -3.470998583972E+00  8.327532464934E+00 -1.038226312270E+00  2.722474295856E+01  3.483889584180E+01      243
 H   1.875890508845E+01  1.845587921233E+01  7.246659251309E+00  0.000000000000E+00 -7.288909791120E+00  2.935450925653E+01 -7.091129986109E+00  1.152598170069E+01 -1.835629767679E+01 -7.171166870360E+00      247
 H   1.441469395497E+01  6.097429293294E+00  8.397722958782E+00  0.000000000000E+00  1.038929922351E+01 -8.982553075807E-02  1.705079707785E+00 -1.237127788856E-01  2.926769825248E+00  4.394683482017E+00      248
 H   5.925685654209E+00  8.327003374521E+00  7.410578602894E+00  0.000000000000E+00 -9.809832349702E+00 -4.876006452551E+00 -9.094984922503E+00 -4.339379661524E+00 -7.272579452768E+00 -1.378515700060E+01      249