     8448
Lattice="     49.70      0.00      0.00      0.00     49.70      0.00      0.00      0.00     49.70" pbc="T T T" config_type=md Properties=species:S:1:pos:R:3:charge:R:1:forces:R:3:id:I:1
 Si  1.049174400563E+01  1.777620584852E+01  1.656750032969E+01  0.000000000000E+00 -1.283072305112E+01  6.875946986940E+00 -4.961391434158E+00  6.408412174331E+00 -3.141913252033E+00 -2.173914784993E+01        1
 Si  1.227643810860E+01  2.045312973287E+01  1.689163749356E+01  0.000000000000E+00  2.174841941889E+00 -2.110286696191E+01  5.513785580913E+01 -1.742823633601E+01  4.007287479024E+01  3.623390106516E+00        2
 Si  1.083816067216E+01  2.279383525367E+01  1.801941100233E+01  0.000000000000E+00  3.313593994706E+00 -1.419435256023E+01 -6.714308691710E+01 -1.122118633605E+01 -4.038464764127E+01  6.968849964266E+00        3
 O   1.108119062450E+01  1.932507787677E+01  1.661972991962E+01  0.000000000000E+00  1.147596179209E+01  3.020100920615E+01  1.444272093189E+01  2.597312256680E+01  9.629671755005E+00  2.001354031872E+01        4
 O   9.107270276077E+00  1.799324913925E+01  1.560178479240E+01  0.000000000000E+00  4.767484140800E+00 -1.881040046779E+01  1.523393446493E+01 -1.631032937332E+01  8.892544050970E+00  9.419126402579E+00        5
 O   1.132176523867E+01  1.693340250772E+01  1.554842692071E+01  0.000000000000E+00  1.509394232492E+01 -2.140443339636E+01 -1.361007823115E+00 -1.965377414792E+01 -9.910334427963E-01  2.257526060895E+01        6
 O   1.042797821798E+01  1.737952424335E+01  1.812650093859E+01  0.000000000000E+00  7.380084202394E+00  1.724730606387E+01 -2.958803260802E+01  1.798859998566E+01 -1.702167233459E+01  1.229982932764E+01        7
 O   1.249005153240E+01  2.126970798830E+01  1.559003375235E+01  0.000000000000E+00  1.571181890267E+01  2.982231553279E+01 -2.164999069100E+01  2.185882880880E+01 -1.734502334645E+01  2.675615862416E+01        8
 O   1.390790533327E+01  1.988785113019E+01  1.720452401044E+01  0.000000000000E+00 -2.063491593873E+01 -4.891004137157E+00  1.796384728952E+00 -4.231095534759E+00  1.452173203817E+00 -2.950725694773E+01        9
 O   1.201487506455E+01  2.169895591552E+01  1.810935137672E+01  0.000000000000E+00  6.697856397426E+00 -5.320872598502E+01 -2.439679833935E+01 -4.440653821878E+01 -1.618636018069E+01  1.209637968897E+01       11
 O   1.876822216147E+01  1.824332008914E+01  2.093428698270E+01  0.000000000000E+00 -1.559018789967E+00 -2.837422279556E+01 -1.387632753151E+01 -3.255954069823E+01 -1.244054780141E+01 -1.515416780857E+00       13
 Ca  3.334000571255E+00  1.609393878361E+01  1.607699701456E+01  0.000000000000E+00  5.967795983417E-01 -2.959954990263E+00  1.222438285529E+01 -2.956839104556E+00  2.358687630222E+00  1.038738498251E+01       14
 Ca  2.051537610529E+01  1.447130581510E+01  1.863954933563E+01  0.000000000000E+00 -1.001573150425E+00 -3.747557405006E+00 -6.373387040691E+00 -4.826985348192E+00 -7.014785059983E+00 -7.064979594622E-01       15
 O   7.647347369711E+00  3.936247393599E+00  1.644061217580E+01  0.000000000000E+00 -1.604222206846E+01 -1.967662259383E-01 -2.869781814582E+01 -3.810731257485E+00 -1.334878420385E+01 -8.125060909593E+00       16
 O   9.679515209651E+00  1.645212354760E+01  2.040250757967E+01  0.000000000000E+00 -3.064115777681E+01  4.762508469435E+01 -8.798815611554E+00  5.906053091857E+01 -4.174402053589E+00 -5.208030593131E+01       18
 Si  2.054113327129E+01  1.980717939809E+01  1.804209290853E+01  0.000000000000E+00 -1.945481711908E+01 -6.460551105451E+00 -1.022244737659E+01 -5.884828977520E+00 -1.163837560231E+01 -1.875967833641E+01       19
 Si  1.843881094330E+01  2.213909493375E+01  1.882503965363E+01  0.000000000000E+00 -2.406190367675E+00  4.841681650968E+00 -9.905344857901E+00  4.116918480294E+00 -9.702119332739E+00 -2.889062485776E+00       20
 O   1.923647748071E+01  2.069399189613E+01  1.870579739257E+01  0.000000000000E+00  4.511717312002E+00  8.827625847022E+00  2.982880291049E+00  7.979503489740E+00  3.067504065301E+00  4.853562279571E+00       22
 O   2.186317897407E+01  2.082835442258E+01  1.807584047971E+01  0.000000000000E+00 -4.491039270515E+01 -1.999616176158E+01 -1.579139967718E+01 -1.735362395298E+01 -1.910009096290E+01 -4.278470105512E+01       23
 O   1.993762447767E+01  1.927348933562E+01  1.653399250248E+01  0.000000000000E+00  2.749835159454E+01  3.297793214565E+01  4.755924317564E+01  2.829051207847E+01  5.734962869589E+01  2.658236375141E+01       24
 O   2.089531337047E+01  1.851629516950E+01  1.905629068735E+01  0.000000000000E+00 -1.033414724392E+01 -5.805095486543E+00  1.855225529928E+01 -5.974390991651E+00  2.034263617026E+01 -9.157561664709E+00       25
 O   1.895975479007E+01  2.284908651220E+01  2.035644323866E+01  0.000000000000E+00 -3.676577950715E+01 -1.563821816742E+01 -6.600615667698E+01 -1.393222001715E+01 -6.147736765988E+01 -4.430777116838E+01       26
 O   2.137566689506E+01  1.698776713070E+01  2.137136381055E+01  0.000000000000E+00 -3.294805138480E+01  3.683746551642E+00 -2.884373722675E+01  4.634316395753E+00 -2.884954485981E+01 -2.618462511990E+01       27
 O   1.915546717780E+01  2.325295757414E+01  1.781563717769E+01  0.000000000000E+00 -1.002221417200E+01 -2.499554451672E+01  2.617889199323E+01 -1.915074892080E+01  2.814768292180E+01 -1.216603692185E+01       29
 Ca  5.351264683012E+00  1.010626685039E+01  1.498320963608E+01  0.000000000000E+00 -1.841563140198E+00 -3.282661696763E+00 -7.711562326729E+00 -4.866763276198E+00 -2.754190332524E+00 -3.477930847967E+00       32
 Si  1.411413739531E+01  1.966321649853E+01  1.289773668430E+01  0.000000000000E+00 -3.000217280276E+01  2.455732420679E+01  1.682712837273E+01  1.610793947745E+01  1.841411463379E+01 -4.179775233328E+01       37
 Si  1.234046316371E+01  2.163838343871E+01  1.401711411302E+01  0.000000000000E+00  4.562838473706E+00  4.632885142462E+01 -3.850378730098E+01  3.001133605860E+01 -3.389817369109E+01  8.000708494746E+00       38
 O   1.237803168044E+01  2.020211080945E+01  1.313473085629E+01  0.000000000000E+00  2.681198629758E+01  1.711557865807E+01 -1.705022590828E+00  1.112797178691E+01 -1.606795287703E+00  4.375968103726E+01       40
 O   1.402871990633E+01  1.849318190230E+01  1.410250415952E+01  0.000000000000E+00  1.288506408225E+01  1.026814394496E+01 -3.239534742272E+00  7.830266498178E+00 -3.222585507658E+00  1.698557213252E+01       41
 O   1.508143688007E+01  2.093059716720E+01  1.273426517707E+01  0.000000000000E+00 -4.227515106334E+00 -1.573575356829E+01  8.658189017442E+00 -9.573700028672E+00  1.025406094082E+01 -5.867107783733E+00       42
 O   1.401207669006E+01  1.891875397126E+01  1.147609641274E+01  0.000000000000E+00  1.347558985300E+01  6.273411652415E+00 -3.332494008116E+01  3.805444960555E+00 -4.068906353823E+01  1.819440292012E+01       43
 O   1.292164982106E+01  2.314989102151E+01  1.342758338492E+01  0.000000000000E+00 -1.711836571063E+00 -6.832414229808E+01  1.505213178383E+01 -3.962991087339E+01  1.448498738719E+01 -3.066855286711E+00       44
 O   1.074226163366E+01  2.189601188731E+01  1.388964320108E+01  0.000000000000E+00 -9.371753273708E+00  1.138878722470E+01  5.704246476682E+00  7.224429355367E+00  4.411668981579E+00 -1.910249704243E+01       46
 O   8.224401852093E+00  2.157361979407E+01  1.461858264426E+01  0.000000000000E+00  5.844881130965E+00 -7.456344891445E+00  4.058736770292E+00 -5.052522249868E+00  2.283441768813E+00  1.533184364391E+01       47
 O   1.643444762210E+01  1.599394960081E+01  1.095160604726E+01  0.000000000000E+00  3.189860039480E+01 -2.466470744716E+01 -5.989773157689E+00 -1.688877144008E+01 -8.988509338582E+00  3.104361149107E+01       48
 Ca  6.591368511573E+00  2.080880019580E+01  1.325033028685E+01  0.000000000000E+00  4.224385120356E-01  1.239676022406E+01 -5.501077213098E+00  7.893831739941E+00 -2.736507418093E+00  1.333628756536E+00       49
 Si  2.052836522040E+01  2.027512308718E+01  2.319886383582E+01  0.000000000000E+00  2.539483216339E+01 -4.713545379792E+01 -3.186153183693E+01 -5.393254432024E+01 -2.819384460630E+01  2.508155629360E+01       51
 Si  1.963370458244E+01  2.257008780634E+01  2.174599460808E+01  0.000000000000E+00  9.037959352706E+00 -3.226200244260E+01  3.799283715772E+01 -3.108403197994E+01  3.430241543085E+01  1.038966107105E+01       52
 O   1.949133519191E+01  2.091473581901E+01  2.215533223206E+01  0.000000000000E+00 -9.154048003497E+00  4.588994863063E+01 -4.102095182657E+00  4.861199619360E+01 -3.608851871723E+00 -9.822543903871E+00       54
 O   1.985316926273E+01  1.878511980344E+01  2.365494901951E+01  0.000000000000E+00 -1.032522858166E+01 -1.249780984397E+01  1.680382122164E+01 -1.573772527448E+01  1.410314208240E+01 -9.769757832495E+00       55
 O   2.181282888869E+01  1.961590446635E+01  2.228604434326E+01  0.000000000000E+00 -1.368616850809E+01  1.999252172954E+01  3.429812410947E+01  2.271392718916E+01  3.356984760866E+01 -1.230773758576E+01       56
 O   2.091066491295E+01  2.083626057248E+01  2.464245356224E+01  0.000000000000E+00  5.211320767691E+00  1.677270643218E+01 -8.046669337830E+00  1.983660349852E+01 -6.828102800870E+00  5.192777843001E+00       57
 O   1.695005895216E+01  2.216645262883E+01  1.816195253888E+01  0.000000000000E+00  1.515731898162E+01 -6.389452373865E+00  3.332872330720E+01 -5.235160208389E+00  3.110479578932E+01  1.982199555379E+01       58
 O   1.559351317968E+01  1.242487693815E+01  1.171394459408E+01  0.000000000000E+00  3.607489638551E+01  3.617536958803E+01 -6.525501276642E+00  3.410547059208E+01 -8.686697238841E+00  2.874439794175E+01       59
 H   4.154766812332E+00  5.364217311908E+00  1.667524303710E+01  0.000000000000E+00 -1.879227914152E+00  2.874365961250E+00  1.629846867067E+01  8.935273907532E+00  4.039531581352E+00 -2.708052523966E+00       70
 H   1.405697806202E+01  1.894185116726E+01  1.746946408586E+01  0.000000000000E+00 -2.390487500437E+00  1.478709422657E+01  1.975251673555E-01  1.363766451569E+01  1.589405908828E-01 -3.221194359889E+00       73
 H   1.423076915770E+01  9.395543657657E+00  1.617380855972E+01  0.000000000000E+00  1.571695567277E+01 -5.393169752569E+00 -1.045646542652E+01 -9.283985928482E+00 -9.200278656741E+00  1.037676470981E+01       83
 Si  2.264710850249E+00  2.135240648632E+01  2.050838220548E+01  0.000000000000E+00  7.516437832473E+00  7.942735783242E+01  1.644600168627E+01  7.628772958412E+01  4.530670844580E-01  4.599375528217E+01       89
 Si  2.487386178275E+00  2.131972712135E+01  1.746542120173E+01  0.000000000000E+00 -2.458531462913E-01 -2.518542779604E+01 -3.814614946328E+01 -2.063225772543E+01 -6.404523887579E+00  3.154794215400E+01       90
 O   1.895910820939E+00  2.122747587857E+01  1.892485256717E+01  0.000000000000E+00  5.166713771482E+00  6.011853193920E+00 -6.588579158372E+00  5.359725103506E+00 -4.445645860307E-01 -2.184473633232E+01       92
 O   2.074492044965E+00  1.988745964852E+01  2.093406217935E+01  0.000000000000E+00  3.830130940218E+00 -6.776955290667E+01  3.257844001263E+01 -7.133601070665E+01  2.630745344842E+00  6.221678071911E+00       95
 O   1.663607783589E+00  2.019351145713E+01  1.653283256287E+01  0.000000000000E+00  1.730046976866E+01 -4.592646730384E+00  3.044791123052E+00 -3.760091927303E+00  8.236522810706E-01 -1.473996399794E+01       96
 O   4.081997687648E+00  2.080137743078E+01  1.734347729299E+01  0.000000000000E+00 -6.063488103323E+00  2.118247835358E+01  1.137764153223E+00  1.766122621240E+01  2.784930699795E-01 -3.023799173183E+01       97
 O   1.151359884028E+01  1.434308940217E+01  2.111064694664E+01  0.000000000000E+00 -3.833535725693E-01  3.138756578487E+01  5.907182384828E+00  4.619728715477E+01  3.221735858080E+00 -4.775635003688E-01       98
 O   3.691752268126E+00  1.231103481242E+01  2.002969218000E+01  0.000000000000E+00 -2.759527182058E-01  3.370694024180E+00 -3.451354941743E+01  5.484020211621E+00 -5.994365111764E+00 -4.992214671044E+00      101
 Ca  2.144751155021E+01  2.293278320184E+01  1.932878538664E+01  0.000000000000E+00  1.078349093934E+01 -2.177069059230E+00 -1.321140210206E+01 -1.834932125220E+00 -1.465957086854E+01  1.153026351295E+01      102
 O   1.735891024059E+01  4.227472065974E+00  1.094611401201E+01  0.000000000000E+00 -1.060178404798E+01  1.851366322432E+01  2.296184212925E+00  4.793708042790E+01  3.641406950841E+00 -2.581887070742E+00      105
 Si  5.485103468760E+00  1.606584590143E+01  1.901175689499E+01  0.000000000000E+00 -6.225672157518E+00  5.033927689983E+00  4.529504719203E+01  5.956972950951E+00  1.306812525759E+01 -1.823496859907E+01      107
 Si  8.026192228950E+00  1.699815298653E+01  2.065102777615E+01  0.000000000000E+00  1.270141843173E+01 -2.405062291367E+00 -1.428510084703E+01 -2.921906175440E+00 -5.552022235939E+00  2.689951193416E+01      108
 Si  7.137146422496E+00  1.957674425972E+01  1.954040748102E+01  0.000000000000E+00  1.985475225469E+01  2.316692847443E+01  1.414072060737E+01  2.312392788445E+01  5.164907312828E+00  5.446033809887E+01      109
 O   6.906639588111E+00  1.666611672610E+01  1.954839399421E+01  0.000000000000E+00  2.229613795747E+00 -2.261749578352E+01  7.248726618306E+00 -2.652901848732E+01  2.561046305912E+00  5.380185732872E+00      110
 O   5.387815535329E+00  1.662766542120E+01  1.757228250146E+01  0.000000000000E+00 -6.623088573564E-01  2.101175853025E+00 -3.649449525634E+01  2.220543578386E+00 -1.118953149540E+01 -2.043991672210E+00      111
 O   4.201544128411E+00  1.667570018719E+01  1.992018359487E+01  0.000000000000E+00  3.137030871782E+00  1.034220804288E+01  9.995000647500E+00  1.235442474247E+01  2.150983682684E+00  1.187130885108E+01      112
 O   5.344285481833E+00  1.452458510877E+01  1.961258768022E+01  0.000000000000E+00  7.487274002637E+00  6.024136312930E-01 -2.375988873963E+01  8.134408022687E-01 -6.474394430330E+00  2.034875360862E+01      113
 O   7.603866064757E+00  1.657310864391E+01  2.216567382039E+01  0.000000000000E+00 -8.593228839364E+00 -2.969443595834E+00 -9.122044132769E+01 -3.971476901979E+00 -3.129289115433E+01 -1.872948759801E+01      114
 O   1.317560147948E+01  1.328414319150E+01  3.649798003066E+01  0.000000000000E+00 -5.724008920053E+00  1.314030858178E+01 -5.072495617669E+01  3.610279664264E+01 -1.831147387024E+01 -5.771163786476E+00      115
 O   8.105130814629E+00  1.857892196688E+01  2.041030958569E+01  0.000000000000E+00  2.737202271160E+00  5.367174038279E+00  1.865696770775E+01  5.896234664037E+00  7.408861842140E+00  6.274330244203E+00      117
 O   5.584620008646E+00  1.955559733059E+01  1.975821747678E+01  0.000000000000E+00 -9.005581631594E+00 -1.528590553731E+00  3.109511459144E+00 -1.544428640199E+00  8.788970934373E-01 -3.153473787698E+01      118
 O   6.873969733312E+00  1.018180232533E+01  2.144133684026E+01  0.000000000000E+00 -6.219578862077E+00 -9.990089290763E+00  3.679661509190E+01 -2.103761816457E+01  1.179678395589E+01 -9.212511107460E+00      119
 Ca  2.343493401572E+01  1.937248348316E+01  2.068616537556E+01  0.000000000000E+00 -2.235439590397E+01  2.297356841008E+01  2.185353833782E+01  2.453144615201E+01  2.475742698847E+01 -1.847925687076E+01      120
 Ca  2.883862504029E+00  1.228664321154E+01  1.757519565738E+01  0.000000000000E+00 -2.418557635440E-01  1.238028559603E+01  2.495451974402E+01  1.770914462951E+01  5.421169437342E+00  9.531323009879E+00      121
 Si  1.266029660901E+00  1.706434330330E+01  1.374304271969E+01  0.000000000000E+00 -2.084908840392E+02 -3.543062522902E+01 -2.327250411357E+01 -2.853462260184E+01 -1.000474545129E+02 -3.055573557498E+01      125
 Si  2.305143936714E+00  1.934608290702E+01  1.530304472559E+01  0.000000000000E+00 -9.176232965344E+00 -2.836255112555E+00 -2.029161299815E+00 -2.243520771064E+00 -2.830256906348E+00 -5.807287334717E+00      126
 Si  3.164072580945E+00  2.123909809483E+01  1.280153411188E+01  0.000000000000E+00 -7.124645565523E+00  5.184331973852E+00  1.657059279131E+01  3.124774993470E+00  5.895343289013E+00  1.264119609542E+01      127
 O   1.072422948790E+00  1.833005854156E+01  1.467134130602E+01  0.000000000000E+00  3.919663128672E+01  2.555356606547E+01  1.364229205409E+01  2.045302193021E+01  1.015265091949E+01 -7.854439856887E+00      128
 O   2.511160722142E+00  1.705213007918E+01  1.272462204924E+01  0.000000000000E+00  1.183667687227E+01  1.567942110677E+00 -1.405777696954E+00  1.170028064576E+00  2.224155489335E+00 -5.178740036950E+00      129
 O   1.381658045066E+00  1.577041585057E+01  1.488229349721E+01  0.000000000000E+00  1.913306435273E+01  3.860429587312E+01  8.473398857093E+00  3.643026708239E+01  1.655153468477E+01 -1.652693769034E+01      131
 O   3.242134088778E+00  1.826407395988E+01  1.604535433052E+01  0.000000000000E+00  3.600485971520E+00  1.193949938549E+01 -1.889490604641E+01  1.048908904936E+01 -3.559839638473E+00  1.902663980046E+01      132
 O   2.568407520860E+00  4.876928990100E+00  9.925168894892E+00  0.000000000000E+00  2.485301829133E+00 -1.002107926931E+01  1.962504981547E+00 -2.039407848790E+01  2.836138467654E-01 -2.498236098434E+00      133
 O   2.660909861745E+00  2.031681869179E+01  1.404189592215E+01  0.000000000000E+00  4.510972264187E+00 -2.836897574676E+01  3.591871345983E+01 -1.960711521312E+01  7.183508810481E+00  1.914017248150E+00      134
 O   1.822094873654E+00  2.109301019544E+01  1.194558087097E+01  0.000000000000E+00  1.797337646283E+01  4.055838147786E+01 -1.423467684664E+01  2.296938281688E+01 -1.068890719402E+01 -2.887936018379E+01      135
 O   8.254060088349E+00  1.506706406800E+01  1.296135630821E+01  0.000000000000E+00  9.143222023583E+00 -3.593215646626E+01  2.076050502614E+01 -3.091043356419E+01  1.322071948919E+01  1.669015133677E+01      136
 Si  8.599221176647E+00  1.408095069435E+01  2.540140063735E+01  0.000000000000E+00 -1.002071969212E+01  1.562509837608E+01  5.646735726968E+00  2.818697348383E+01  1.911608345363E+00 -1.640860922264E+01      139
 Si  7.833168056254E+00  1.657213042520E+01  2.367806965342E+01  0.000000000000E+00  2.975572923841E+01  3.895982433594E+00  1.241701334197E+02  5.566534963475E+00  4.107790613344E+01  6.295228473262E+01      140
 O   7.682565693763E+00  1.510870148801E+01  2.440071744791E+01  0.000000000000E+00  5.069216429972E+00 -1.391172986576E+01  3.767624357604E+00 -2.246759524208E+01  1.186236498927E+00  9.969231747766E+00      142
 O   8.096042658515E+00  1.247081606565E+01  2.528045467761E+01  0.000000000000E+00 -8.058133572814E+00  1.669011224388E+01  3.741101701190E+01  3.383368208820E+01  1.198084423280E+01 -1.241242244608E+01      143
 O   6.968370360244E+00  1.764241914207E+01  2.454696379685E+01  0.000000000000E+00  1.907759236243E+00  1.418847712392E+01 -1.420253501389E+01  1.974128556229E+01 -4.031803071459E+00  4.830037200661E+00      148
 O   1.255061585636E+01  1.618021733247E+01  1.163983822444E+00  0.000000000000E+00  1.496110501301E+01  1.215375224036E+01  3.226868156263E+01 -3.960454181721E+00 -1.921009844877E+01  1.928781291811E+01      150
 Ca  4.778209867008E+00  1.153082681869E+01  7.180922545379E+00  0.000000000000E+00 -2.504358546044E+00  4.854029512369E+00 -5.953053673435E-01  3.022889035572E+00 -3.952304007267E-01 -6.036264688042E+00      151
 Ca  1.194192280205E+01  2.184755249426E+01  1.639062863265E+00  0.000000000000E+00 -6.416540172809E-01  5.606751289876E+00 -4.984571861339E+01  2.810349091955E+00  2.241770491806E+00 -1.173895532409E+00      152
 H   6.875677039460E+00  1.868279966672E+01  1.446467998521E+01  0.000000000000E+00 -1.202976277774E+01  4.669027762493E+01  1.867238630407E+01  3.614875373676E+01  8.875778649375E+00 -3.268763886448E+01      155
 H   1.376834787967E+01  1.398494958214E+01  3.612705899215E+01  0.000000000000E+00 -1.297812037469E+01 -1.378313277814E+01  2.259919245609E+01 -3.560570941265E+01  8.612755984449E+00 -1.318229032976E+01      156
 H   1.656426263948E+01  1.275613007184E+01  1.182846331762E+01  0.000000000000E+00 -3.991674264510E+01 -1.469173859166E+01 -1.957168449558E+00 -1.362330816829E+01 -2.740766180499E+00 -3.073986281837E+01      159
 H   1.712638850497E+01  3.344823669589E+00  1.097978269185E+01  0.000000000000E+00 -1.559465623278E+01 -1.422749610351E+01  2.324171504328E+00 -4.628560464930E+01  3.625268846609E+00 -3.133096109632E+00      160
 H   1.565581926207E+01  1.737751528824E+01  1.482529504425E+01  0.000000000000E+00 -1.425826353673E+01  3.214426678974E+01 -4.568904999657E+00  2.742326686148E+01 -4.824858506134E+00 -1.582626807615E+01      164
 H   1.984969787138E+01  6.601394852003E+00  6.542382052289E+00  0.000000000000E+00 -2.512753408308E+01 -1.483174603371E+01  2.136714390581E+01 -1.469915847037E+01  6.482827623255E+01 -8.356639744060E+00      168
 H   5.170249036729E+00  1.993888333689E+01  3.279321481549E+01  0.000000000000E+00  1.997839617682E+00  9.765988526029E+00  1.498242628903E+01  1.606199074484E+01  2.362161670472E+00  7.704598130537E+00      169
 Si  1.159817818858E+01  3.962642660673E-01  1.935059787961E+01  0.000000000000E+00  2.654167393248E+01 -1.786050179069E+02  1.729656706803E+00 -1.495187618692E+01  1.036705264374E+00 -8.615895699429E+01      177
 Si  1.048820064912E+01  3.183804752983E+00  1.864220219785E+01  0.000000000000E+00  1.191366497062E+01  7.459888924086E-01  5.175963856496E+01  7.338480168145E-01  2.912024389790E+01  3.428560593465E+00      178
 Si  8.072906885098E+00  3.758576569404E+00  2.024221981918E+01  0.000000000000E+00 -7.269900936478E+00  4.222412595819E+00  1.439682774884E+01  2.274025880638E+01  5.741675117420E+00 -3.384713797725E+00      179
 O   1.047472018942E+01  1.490170492253E+00  1.890793177859E+01  0.000000000000E+00  8.025654658431E-01  9.373781720621E+00 -4.961322987987E+00  1.204888213627E+01 -2.748501035282E+00  3.921929413745E+00      180
 O   1.225460267853E+01  3.355481322464E-01  2.102250635533E+01  0.000000000000E+00 -1.321447186598E+01  1.609796997452E+01 -4.451982868725E+01  1.211667308852E+01 -2.595184430709E+01 -6.576643021214E+00      182
 O   1.094946926732E+01  3.815357498445E+00  1.723272483796E+01  0.000000000000E+00  4.243218058139E-01 -1.404013644375E-02 -2.388223414745E+01 -4.610117903912E-01 -1.517448872952E+01  1.973851819776E-01      184
 O   1.147946388026E+01  3.997312870239E+00  1.971007814881E+01  0.000000000000E+00 -3.096689373616E+00 -3.936634170475E+00 -1.835700933653E+01 -1.941088167529E+01 -1.069141502318E+01 -1.078311358214E+00      185
 O   8.855986027357E+00  3.363883888793E+00  1.889189197064E+01  0.000000000000E+00  8.055784643898E+00 -1.925376516067E+00 -2.201182389160E+01 -1.044009802795E+01 -1.031852210057E+01  3.072916780999E+00      187
 O   6.601522897421E+00  4.236443640201E+00  1.994043372633E+01  0.000000000000E+00 -5.298998641888E+00  8.800970200712E-01 -2.116622036206E+01  4.142511453460E+00 -7.007334458704E+00 -3.400565209677E+00      188
 Ca  1.292907175247E+01  2.761659662775E+00  2.126381583201E+01  0.000000000000E+00 -7.108868860799E+00 -2.273929321177E+00 -1.890683080951E+01 -4.433033202940E+00 -1.149595040134E+01 -1.188405133532E+00      190
 O   1.374230340555E+01  1.780540867867E+01  8.510853251054E+00  0.000000000000E+00 -1.566950702082E+01 -1.204207893805E+01 -9.457307604837E+00 -5.756024392863E+00 -1.527052419676E+01 -2.030241714692E+01      193
 O   5.376246655907E+00  1.103152436844E+01  1.284151486952E+01  0.000000000000E+00  1.170891261846E+01  1.450996112618E+01  9.635568664221E+00  1.689067397530E+01  4.034040713665E+00  2.402552619801E+01      194
 Si  1.847600834595E+01  1.544834395681E+00  1.999685761290E+01  0.000000000000E+00  6.280513137181E+00  2.083134279591E+00 -1.500821209731E+01  9.960669795919E+00 -1.386677133655E+01 -3.227351428691E+00      196
 Si  1.617943151825E+01  3.877780021444E+00  1.967363596223E+01  0.000000000000E+00 -2.263995919413E+01 -1.122441647199E+00  3.106988466711E+01 -5.694626367077E+00  2.555160989136E+01 -5.426196918619E+00      197
 O   2.001174307476E+01  2.123756866317E+00  2.045605741796E+01  0.000000000000E+00 -1.419111918907E+01 -1.003405276532E-01 -1.627071159085E+01 -3.476627857235E+00 -1.591730475462E+01 -1.378681876912E+00      202
 O   1.738454168913E+01  2.819147811456E+00  1.953992157266E+01  0.000000000000E+00  2.782804887184E+01 -4.656855349996E+00  1.777127984462E+01 -3.471888707609E+01  1.581099259683E+01  4.325458429473E+00      205
 O   1.608029171618E+01  4.789524799325E+00  2.104633895680E+01  0.000000000000E+00  2.798385691317E+00 -4.344751620645E+00 -9.190436662518E+00 -1.909189723876E+01 -7.021881707583E+00  8.335009030436E-01      206
 Ca  1.319552609648E+01  5.193417141140E+00  1.887348451814E+01  0.000000000000E+00  3.402321964022E+00  1.362450387205E+00 -2.185741746302E+00  4.951303850781E+00 -1.528176327258E+00  1.339065762020E+00      209
 O   2.231423391791E+01  1.929552739623E+01  1.490221739781E+01  0.000000000000E+00  1.522589860711E-01 -2.024811852839E+01 -4.493709110278E+01 -1.563791743083E+01 -6.728775561985E+01  1.316611382611E-01      210
 O   1.352529712662E+01  1.768773004465E+01  3.652472101047E+00  0.000000000000E+00  7.363886725252E+00 -3.402850518091E+01  2.597140740764E+00 -6.615402202900E+00  5.357284152215E+00  9.630135238901E+00      212
 Si  1.422679508971E+01  3.909525064449E+00  1.461247187362E+01  0.000000000000E+00 -2.945827528594E+01  8.100890149002E-01 -9.231473700058E+00  4.155459097272E+00 -8.987821214829E+00 -8.051847164956E+00      213
 Si  1.148740459283E+01  4.660806802500E+00  1.594856716381E+01  0.000000000000E+00 -1.186487569726E+01  1.399758415568E+01 -7.824595035426E+00  4.789758951565E+01 -5.635884905756E+00 -4.813958881115E+00      214
 Si  1.046558191341E+01  6.165408046834E+00  1.355815681108E+01  0.000000000000E+00 -1.809235841427E+01  2.336586619637E+00  5.394819488653E-01  5.138314861085E+00  4.164277346344E-01 -1.065843954750E+01      215
 O   1.246148619558E+01  4.069357236052E+00  1.490909766371E+01  0.000000000000E+00  1.136554194407E+01 -6.122062859632E+00 -1.718220826973E+01 -2.154490334123E+01 -1.436142253491E+01  3.704173596382E+00      216
 O   1.468319792911E+01  4.033018979671E+00  1.616964069331E+01  0.000000000000E+00  1.792431039862E+01  9.421321799690E-01  4.835955069414E+00  3.738134425735E+00  4.391395381459E+00  4.928489081414E+00      217
 O   1.473635934657E+01  5.000264048213E+00  1.348574420031E+01  0.000000000000E+00 -3.515180748398E+00 -5.362716947941E+00  8.111671646653E+00 -1.431339893622E+01  8.863916333491E+00 -1.190994532535E+00      218
 O   1.417995214407E+01  2.360405076922E+00  1.421183195961E+01  0.000000000000E+00  1.832124211508E+01 -2.621324631242E+00 -1.312750249787E+00 -1.600952263760E+01 -1.309805503751E+00  1.888682831364E+00      219
 O   1.247932804397E+01  5.982317406075E+00  1.651630560538E+01  0.000000000000E+00 -1.064640561286E+01 -2.842749791634E+00  1.515899030542E+01 -7.848417449493E+00  1.145377285675E+01 -5.103654410359E+00      220
 O   1.016412479506E+01  5.447466788158E+00  1.507871813068E+01  0.000000000000E+00  1.096884509601E+01 -2.665534858960E+00  1.254486820547E+01 -7.378264130613E+00  8.456130346947E+00  5.878756958401E+00      222
 O   1.197943584936E+01  6.141722885082E+00  1.314360840960E+01  0.000000000000E+00 -4.721069373649E+00  1.345319627571E+00 -1.128117203003E+01  2.879054412158E+00 -1.028196157614E+01 -2.420439508071E+00      223
 O   2.133329588221E+01  2.163450683598E+01  1.214466107711E+01  0.000000000000E+00  1.820203265442E+01 -1.541246840036E+01  6.542482881082E-01 -8.651882222372E+00  1.149251693565E+00  1.845903240011E+01      224
 Ca  1.555569346975E+01  7.682895156458E+00  6.404027797943E+00  0.000000000000E+00  3.424717715424E+00  1.823551551443E+00 -1.849385326811E+00  1.520009656335E+00 -4.492246467225E+00  1.691454463231E+00      225
 Ca  1.666679557622E+01  5.008380924618E+00  1.608096601742E+01  0.000000000000E+00  1.108930939369E+01 -1.279220651541E+00 -1.264027978258E+01 -4.107336110377E+00 -1.310076514895E+01  3.332343363818E+00      226
 Si  2.156726441798E+01  2.513681132536E+00  2.025581048406E+01  0.000000000000E+00  3.148197539758E+01  5.652747898798E+00 -3.791197538884E+01  4.390685814250E+01 -4.036657029659E+01  4.832539772087E+00      228
 Si  2.294161746480E+01  4.991957007057E+00  2.140087229658E+01  0.000000000000E+00 -1.098816909686E+02  1.729053792248E+00  4.212028309228E+01  7.412575739236E+00  4.515271194653E+01 -2.390959042097E+01      229
 O   2.257209296851E+01  1.249182917560E+00  2.046254712040E+01  0.000000000000E+00 -3.623956088224E+00  1.490239355252E+00  9.795693269458E+00 -2.063253305670E+01  1.080556090443E+01 -9.682301810104E+00      230
 O   2.193772352371E+01  3.594290355878E+00  2.150308019041E+01  0.000000000000E+00  3.862678549592E+00  1.488417294206E+00  4.300168932321E+00  8.834966543649E+00  4.387088561599E+00  5.523424457918E-01      236
 O   2.368328327414E+01  4.882240054698E+00  2.297316326710E+01  0.000000000000E+00 -2.200420711572E+00 -4.177381068968E-01 -2.867640458584E+01 -1.965648068328E+00 -2.956281663060E+01 -4.536103381813E-01      237
 H   1.352362697835E+01  1.665318036218E+01  3.714797005539E+00  0.000000000000E+00 -1.550258907820E+00  3.555821214702E+01  4.304340992860E-01  7.948936405271E+00  5.817445513208E-01 -1.909010152477E+00      243
 H   1.875275030880E+01  1.958065185530E+01  7.751621848902E+00  0.000000000000E+00 -9.117863933831E-01 -2.706468516050E+01  4.625035704309E+00 -1.071441371688E+01  1.118890232558E+01 -9.520401883055E-01      247
 H   1.548246821459E+01  8.686510039617E+00  9.305159345925E+00  0.000000000000E+00  1.679703899329E+01 -8.972123078885E+00 -8.119373292539E+00 -9.611113616345E+00 -1.350948804323E+01  9.424056024450E+00      248
 H   6.367656974386E+00  1.142502339443E+01  9.303041305787E+00  0.000000000000E+00 -1.782072010273E-01  1.273665939290E+01 -7.124359963608E+00  1.037106571595E+01 -4.876413951004E+00 -3.197442087384E-01      249