     8448
Lattice="     49.70      0.00      0.00      0.00     49.70      0.00      0.00      0.00     49.70" pbc="T T T" config_type=md Properties=species:S:1:pos:R:3:charge:R:1:forces:R:3:id:I:1
 Si  1.083016612856E+01  1.744981666607E+01  1.588344074927E+01  0.000000000000E+00  5.565937196024E+00  4.536909523069E+00 -1.111969683038E+01  4.129655627534E+00 -7.581994724775E+00  8.967968034151E+00        1
 Si  1.229410978721E+01  2.016804299352E+01  1.700554526455E+01  0.000000000000E+00  1.976252154907E+00 -4.197573867329E+01  2.367683908223E+01 -3.539363359405E+01  1.711710236647E+01  3.241970269996E+00        2
 Si  1.093447684107E+01  2.227140369691E+01  1.796667911403E+01  0.000000000000E+00  1.760297268376E-01  2.009388618459E+01  3.842083301202E+01  1.621004271421E+01  2.338282473450E+01  3.585383339359E-01        3
 O   1.114570296672E+01  1.913395255187E+01  1.615125938153E+01  0.000000000000E+00  1.719859543038E+01  3.737496079820E+01  3.126775400418E+01  3.154877093950E+01  2.157733278469E+01  2.952502053090E+01        4
 O   9.231410903320E+00  1.729299598991E+01  1.612076051220E+01  0.000000000000E+00  4.954309046064E+00  9.481972823296E+00 -9.839562937510E+00  8.839220986154E+00 -5.634538675548E+00  9.280796550348E+00        5
 O   1.145891458857E+01  1.745092465002E+01  1.434626162922E+01  0.000000000000E+00 -1.042838778627E+01 -1.860540437885E+01  1.968624308950E+01 -1.529534991925E+01  1.572416452192E+01 -1.588152246643E+01        6
 O   1.169670900965E+01  1.659012214947E+01  1.710134964455E+01  0.000000000000E+00  1.895010623282E+01  1.484909050248E+01 -6.229183602129E+01  1.530666780501E+01 -4.260537880119E+01  2.687803696652E+01        7
 O   1.290818496424E+01  2.128766464007E+01  1.593157273230E+01  0.000000000000E+00 -6.966415362040E+00  2.471913772514E+00  3.286921827073E+01  1.849966857362E+00  2.663151693796E+01 -1.148873481294E+01        8
 O   1.380930307733E+01  1.954689354969E+01  1.761647846443E+01  0.000000000000E+00 -1.139952058527E+01  6.722003580518E+00 -2.313964429535E+01  6.058150928841E+00 -1.813883301485E+01 -1.613587696280E+01        9
 O   1.177610885416E+01  2.084554571159E+01  1.851242105328E+01  0.000000000000E+00 -3.154382230898E+00  2.139386514654E+01 -6.076679729671E+01  1.899937017862E+01 -3.865493430735E+01 -5.583747551959E+00       11
 O   1.915473000974E+01  1.784021469873E+01  2.122301099308E+01  0.000000000000E+00 -1.589585788064E+01 -3.901748594914E+01 -4.905972382720E+01 -4.641583900220E+01 -4.427862590132E+01 -1.480498640633E+01       13
 Ca  3.651663806541E+00  1.563300788802E+01  1.688616076352E+01  0.000000000000E+00 -2.368341954746E-02  1.438651143943E+01  9.472781872873E+00  1.553974428546E+01  2.106401063105E+00  4.937519635768E-01       14
 Ca  2.134711709773E+01  1.379099695853E+01  1.818493935036E+01  0.000000000000E+00  4.278394768143E+00 -3.646648384670E+00 -1.437956475250E+01 -4.808505136120E+00 -1.688002619485E+01  2.763995202010E+00       15
 O   6.479245340135E+00  4.380905262959E+00  1.613267264372E+01  0.000000000000E+00 -8.395363022889E+00 -1.132499079952E+01 -2.583254559871E+01 -4.147883775530E+01 -1.037493318006E+01 -5.688566813297E+00       16
 O   9.646716599122E+00  1.652440457941E+01  1.971573813673E+01  0.000000000000E+00  1.159145398756E+01 -2.004985573046E+01  1.223678309660E+01 -2.392205439908E+01  5.987337516818E+00  1.985565486307E+01       18
 Si  2.069511778137E+01  1.991129638145E+01  1.808396419236E+01  0.000000000000E+00 -2.912172781261E+01  1.811958318930E+01  1.658750562654E+01  1.645668304556E+01  1.898258473577E+01 -2.801875107659E+01       19
 Si  1.812408479567E+01  2.165893917329E+01  1.857356890747E+01  0.000000000000E+00  2.173505748514E-02 -3.839485449510E+01 -3.688116851020E+01 -3.292541107166E+01 -3.598863679739E+01  2.597418260320E-02       20
 O   1.905039192817E+01  2.026148082531E+01  1.821856691280E+01  0.000000000000E+00 -1.800340486073E+00  3.235271316145E+00  1.454343833614E+01  2.909067084604E+00  1.520746399060E+01 -1.914793374075E+00       22
 O   2.144408470238E+01  2.134066710622E+01  1.798634392740E+01  0.000000000000E+00  3.289087224152E+00 -1.167542678621E+01  7.298952363562E+00 -9.840284777918E+00  8.702121640432E+00  3.273225064539E+00       23
 O   2.114220183150E+01  1.898847840141E+01  1.689669028949E+01  0.000000000000E+00 -1.186290566360E+01 -1.452958427106E+01 -4.616140029694E+01 -1.292899200628E+01 -5.776004798463E+01 -1.065444979508E+01       24
 O   2.094648171601E+01  1.875426717113E+01  1.929130067107E+01  0.000000000000E+00  5.248608911125E-03 -2.466698731314E+00  1.987715637188E+01 -2.537333314948E+00  2.158260345474E+01  4.699300585679E-03       25
 O   1.844204845002E+01  2.241364517941E+01  1.995077426636E+01  0.000000000000E+00 -7.626928032790E+00  6.689046816641E+00 -1.341115714903E+01  5.954036571370E+00 -1.239697300020E+01 -9.269429000749E+00       26
 O   2.181341697306E+01  1.719230480439E+01  2.112729932457E+01  0.000000000000E+00 -1.241445083417E+01 -1.339015975459E+00  2.386692804919E+00 -1.645491493769E+00  2.464201625607E+00 -9.784483695685E+00       27
 O   1.839406754930E+01  2.242955026035E+01  1.715090862794E+01  0.000000000000E+00  6.970518045145E+00  2.495582023901E+01  3.411796868956E+00  1.908263820212E+01  3.659096053362E+00  8.499783118398E+00       29
 Ca  4.411101017928E+00  1.059546444731E+01  1.469597160340E+01  0.000000000000E+00  9.304144309306E-01  3.650775096187E+00  9.676639695018E+00  5.063646564131E+00  2.904512635213E+00  2.234855421383E+00       32
 Si  1.340448194953E+01  1.979377884794E+01  1.239331106234E+01  0.000000000000E+00  1.067896088236E+00 -7.692189338851E+01 -1.869427531087E+01 -4.816245344515E+01 -2.021954219527E+01  1.576912788029E+00       37
 Si  1.235012796397E+01  2.171440133603E+01  1.448816823142E+01  0.000000000000E+00 -1.696787004198E+01  6.681712208504E+01 -4.332377763954E+00  4.458136747713E+01 -3.693042413535E+00 -2.983346739275E+01       38
 O   1.319410067570E+01  2.074908934165E+01  1.361768182195E+01  0.000000000000E+00 -3.125893506842E+00 -2.591804220283E+01 -8.262758064960E+00 -1.701007915839E+01 -8.005743062104E+00 -4.915791173658E+00       40
 O   1.391444566480E+01  1.830739534353E+01  1.294949637950E+01  0.000000000000E+00  4.708813378428E+01 -1.775138670695E+01  1.291086219301E+01 -1.255621095078E+01  1.387293259950E+01  6.195439631195E+01       41
 O   1.459413562620E+01  2.030681710390E+01  1.149711504313E+01  0.000000000000E+00  2.369922801433E+01  1.799222424374E+01 -1.067267847451E+01  1.018666150159E+01 -1.354761751688E+01  3.297597755133E+01       42
 O   1.214092285464E+01  1.918444823316E+01  1.159091902147E+01  0.000000000000E+00 -1.951741003813E+01  1.336615454685E+01 -2.649513043724E+00  8.075604421768E+00 -2.775235803704E+00 -3.084038561195E+01       43
 O   1.294664329806E+01  2.315337013818E+01  1.374869795724E+01  0.000000000000E+00 -3.569202556562E+01  4.140608213557E+00  1.853196528577E+01  2.458733711237E+00  1.745087025062E+01 -6.383049720899E+01       44
 O   1.075099019236E+01  2.206633986522E+01  1.433472699671E+01  0.000000000000E+00  2.819258696569E+00 -2.171478141980E+00 -2.575775956512E+00 -1.410634773811E+00 -1.931822074638E+00  5.786510772810E+00       46
 O   8.314531477460E+00  2.135357992430E+01  1.497121295776E+01  0.000000000000E+00 -1.128340872709E+01 -1.535493136098E+01 -2.017718449081E+01 -1.076549918899E+01 -1.120576108620E+01 -2.897832195665E+01       47
 O   1.781582368281E+01  1.631482827828E+01  8.889307341396E+00  0.000000000000E+00  7.544046701805E+00 -2.730110211414E+01  5.311400048228E-01 -1.487529524136E+01  1.064503263685E+00  6.908455576039E+00       48
 Ca  7.060709105129E+00  2.084384522107E+01  1.297259920850E+01  0.000000000000E+00 -1.408939546913E+00  3.000529900938E+00  4.823895693054E-01  1.867441990917E+00  2.625543554897E-01 -4.159315644424E+00       49
 Si  2.097063865116E+01  2.070248637193E+01  2.282618646832E+01  0.000000000000E+00 -2.349650642772E+01 -6.751615331282E+00  3.071892928362E+01 -7.444208765338E+00  2.822177794137E+01 -2.319605579017E+01       51
 Si  1.967068551323E+01  2.277586861765E+01  2.088647328020E+01  0.000000000000E+00 -9.202989859914E+00  4.252702463476E+01  4.228839865100E+01  3.899915206886E+01  3.982681899249E+01 -1.065575919040E+01       52
 O   1.985259276460E+01  2.144974138930E+01  2.179219813424E+01  0.000000000000E+00  8.336170408909E+00 -2.103886100815E+01  3.999061445636E+01 -2.137475782515E+01  3.643126674590E+01  9.006818483032E+00       54
 O   2.049704090830E+01  1.910045177160E+01  2.368444499427E+01  0.000000000000E+00 -1.850051450360E+01  6.116204147759E+01 -8.952611743049E+00  7.584056253933E+01 -7.747787595520E+00 -1.723996095860E+01       55
 O   2.214937219946E+01  2.006975333465E+01  2.203546887301E+01  0.000000000000E+00  2.055199459280E+01  2.496621204968E+00 -2.125429185482E+01  2.741150722307E+00 -2.136415720679E+01  1.862235454342E+01       56
 O   2.161297704386E+01  2.179080437896E+01  2.387257663667E+01  0.000000000000E+00 -3.315419555401E+01 -3.083033612174E+00 -6.170677351059E+00 -3.377569496751E+00 -5.586607175391E+00 -3.342698177087E+01       57
 O   1.654459355746E+01  2.137171184834E+01  1.864296101600E+01  0.000000000000E+00  1.685376953306E+00 -5.658185116012E+00 -2.846971508724E+00 -4.935745217214E+00 -2.526529259010E+00  2.177109427125E+00       58
 O   1.566827985451E+01  1.481046201379E+01  1.244723813552E+01  0.000000000000E+00 -2.555674885349E+01 -2.730665868763E+01 -4.795881588008E+01 -2.294948550921E+01 -6.036938801354E+01 -2.415755026111E+01       59
 H   3.720738968594E+00  7.583650761564E+00  1.569938477045E+01  0.000000000000E+00 -1.598268063886E+00 -1.503636515928E+01 -3.828424864068E+00 -3.112771007084E+01 -9.379237299182E-01 -3.819978589344E+00       70
 H   1.443057164370E+01  1.920408830471E+01  1.692754286694E+01  0.000000000000E+00 -7.707272784145E+00 -2.124947308179E+00  7.594471522013E+00 -1.873045784754E+00  6.474215794690E+00 -1.025677643199E+01       73
 H   1.819631381504E+01  1.168832480419E+01  1.656574489619E+01  0.000000000000E+00 -1.436238673149E+01 -1.890768587517E+01  1.921395894592E+01 -2.679767255210E+01  2.110519199710E+01 -9.225618044814E+00       83
 Si  1.935239364825E+00  2.090667136113E+01  2.167261111350E+01  0.000000000000E+00  1.400656917544E+01 -1.041150653240E+02 -1.435453179747E+01 -1.079294395003E+02  1.323458673428E+00 -3.596889912601E+00       89
 Si  2.667608965913E+00  2.059564389943E+01  1.860373327299E+01  0.000000000000E+00 -2.041631990090E+00 -5.790021471492E+00  6.065485896383E+00 -5.230038722097E+00  9.432693174981E-01 -2.493446329898E+01       90
 O   1.642633123524E+00  2.014464007975E+01  1.988389482056E+01  0.000000000000E+00  8.483723141031E+00  2.588557846155E+01  8.682263795117E+00  2.555052448001E+01 -1.653126509537E+00  1.887449286884E+01       92
 O   9.984081749883E-01  1.970922812345E+01  2.253829553271E+01  0.000000000000E+00  3.582552661021E+01  3.411959504844E+01 -2.573142859994E+01  3.901713003885E+01 -3.031890359748E+01  3.304736258299E+01       95
 O   2.105622753081E+00  2.020087724776E+01  1.705294087414E+01  0.000000000000E+00  2.692598676402E+00 -9.976813694418E+00  1.223899627515E+01 -8.422110186431E+00  2.069953726226E+00 -8.607337494627E+00       96
 O   4.136662772986E+00  1.993152652188E+01  1.867614419244E+01  0.000000000000E+00 -2.401832306636E+00  2.411872553116E+01  8.734973542192E+00  2.259961349489E+01  1.934748388248E+00 -1.157265819043E+01       97
 O   1.128298254496E+01  1.444460208295E+01  2.068610242880E+01  0.000000000000E+00 -3.187211545512E+00  1.439312324118E+01  4.538573792690E+00  2.061237962304E+01  2.475509780453E+00 -4.080304329607E+00       98
 O   3.669547407296E+00  1.212873831329E+01  2.099395144617E+01  0.000000000000E+00 -3.443785901252E-01 -7.084932323574E+00 -3.018008993105E+01 -1.226349529180E+01 -5.181855137996E+00 -1.973228747257E+00      101
 Ca  2.203878512235E+01  2.350512698927E+01  1.832609920794E+01  0.000000000000E+00 -8.143699243678E+00 -6.033619490253E+00 -2.405167575381E+00 -4.704195361796E+00 -2.892430668175E+00 -8.685537057618E+00      102
 O   1.587257261233E+01  4.598260210290E+00  1.198518566202E+01  0.000000000000E+00 -2.039980164698E+01 -4.037158625497E+00  5.059164015927E+00 -1.070956535619E+01  6.700100479457E+00 -5.908329710276E+00      105
 Si  5.485260137809E+00  1.574635688258E+01  2.014591796285E+01  0.000000000000E+00  1.745275292356E+01 -3.528166249434E+00 -3.934026726368E+00 -4.513942390001E+00 -1.071143048583E+00  5.010104702669E+01      107
 Si  8.425485477332E+00  1.678338539072E+01  2.076795859699E+01  0.000000000000E+00 -1.509921771214E+01 -4.186666573295E+01  1.650302100697E+01 -5.180630488392E+01  6.695215766004E+00 -3.007731609569E+01      108
 Si  7.630080139592E+00  1.997127188725E+01  2.002114445277E+01  0.000000000000E+00 -1.412831611114E+01 -7.104809266773E+01 -3.092148321409E+01 -7.122551505107E+01 -1.178421121306E+01 -3.698001032786E+01      109
 O   7.222171523310E+00  1.558285636731E+01  2.036537890477E+01  0.000000000000E+00  2.909723657916E+00  3.916364152545E+01  2.919336506193E+00  5.118332481260E+01  1.035283904148E+00  6.278140263429E+00      110
 O   5.256333746390E+00  1.611121891144E+01  1.856273856907E+01  0.000000000000E+00 -2.375217880039E+00 -8.466564607910E+00  7.563307437982E+00 -9.754856305952E+00  2.141670420701E+00 -7.280294036496E+00      111
 O   4.962821952140E+00  1.681082339689E+01  2.120143971698E+01  0.000000000000E+00 -3.235979747270E+00  8.549591936708E-01  2.872298739047E-01  1.078255679519E+00  6.723461908971E-02 -1.096140151146E+01      112
 O   5.259991297139E+00  1.416634020454E+01  2.052702893299E+01  0.000000000000E+00 -4.902712469564E+00 -2.239871104538E+01  9.340370422861E+00 -3.245573543002E+01  2.393442679732E+00 -1.320410792441E+01      113
 O   8.894213420513E+00  1.609552351156E+01  2.233123699528E+01  0.000000000000E+00 -2.108170751225E+00  6.380660374345E+00 -4.964721789847E+01  8.852650173421E+00 -1.977377929476E+01 -3.815077319199E+00      114
 O   1.147115839265E+01  1.359948562476E+01  3.460212195056E+01  0.000000000000E+00  5.436387997135E+00  1.268127561100E+01  2.647499518523E+01  3.226585602484E+01  8.776885523039E+00  6.445040499575E+00      115
 O   7.851451586155E+00  1.829740669337E+01  2.069009571048E+01  0.000000000000E+00  4.749410473483E+00  1.374903772282E+01  1.979082005398E+00  1.554695215445E+01  7.510195587226E-01  1.106825840209E+01      117
 O   6.115424601677E+00  2.024119127408E+01  2.056962842158E+01  0.000000000000E+00 -1.135569293171E+00 -8.172627836446E+00 -1.253313584289E+01 -8.305238340335E+00 -3.726146418347E+00 -3.758573895547E+00      118
 O   6.484578934335E+00  9.464909100894E+00  2.240005758570E+01  0.000000000000E+00  6.345281907366E+00 -2.682491643155E+01 -5.781181091413E+01 -6.348499139220E+01 -1.673590569021E+01  9.261590780362E+00      119
 Ca  2.320666433914E+01  1.900586357158E+01  2.063584099769E+01  0.000000000000E+00  1.542507456399E+01 -1.791366666213E+01 -1.216754644954E+01 -1.944997529489E+01 -1.368338544171E+01  1.263287383574E+01      120
 Ca  3.391484317159E+00  1.277146236462E+01  1.877685876257E+01  0.000000000000E+00 -5.110411559333E+00 -5.757381285111E+00 -2.406705277787E+00 -8.464616826675E+00 -2.217935866798E-01 -4.220002765756E+00      121
 Si  9.617872686124E-01  1.731084680929E+01  1.372137603963E+01  0.000000000000E+00 -1.882826814385E+02 -4.083103310120E+00  4.034853420445E+01 -3.236456110093E+00 -1.006344054872E+02  4.737063745554E+01      125
 Si  2.680939783112E+00  1.917872955842E+01  1.588301501006E+01  0.000000000000E+00  3.487534911472E+00 -1.040858003247E+00 -2.127573472105E+01 -8.619947029629E-01 -5.828967389689E+00  2.872613947781E+01      126
 Si  3.296297158469E+00  2.052924099225E+01  1.320494005818E+01  0.000000000000E+00 -1.773293402390E+00 -2.052035516167E+01 -4.470179200921E-01 -1.319922446158E+01 -5.253466994178E-01  1.144375198852E+00      127
 O   1.456107805709E+00  1.856609800425E+01  1.490886335553E+01  0.000000000000E+00  2.421260792184E+01 -1.385275999821E+01 -6.376109610652E+00 -1.112398016336E+01  2.077251553098E+01 -1.632278405831E+00      128
 O   2.126931205373E+00  1.657033256226E+01  1.285543241799E+01  0.000000000000E+00  1.905292948403E+01  1.648074063283E+01  4.815866688304E-01  1.278592608855E+01 -1.732680914605E-01 -9.903678874424E+00      129
 O   2.678770328850E-01  1.613450506907E+01  1.472550161365E+01  0.000000000000E+00  1.295904284675E+01 -1.082026162520E+01  1.823072271811E+01 -9.875343516270E+00  3.392834880304E+01 -9.052492916175E-01      131
 O   3.739051956097E+00  1.796436196496E+01  1.633646882625E+01  0.000000000000E+00 -3.666685172046E+00  1.785666191936E+01 -7.813222975872E+00  1.623852833490E+01 -1.720845752287E+00 -1.706855484800E+01      132
 O   2.547066267528E+00  4.763452663458E+00  9.604229452336E+00  0.000000000000E+00  5.580138507881E-01 -2.669306581056E+00  5.279325602670E+00 -5.381943454536E+00 -7.274812778752E-01 -1.171639544299E+01      133
 O   3.483927974733E+00  2.033899214086E+01  1.485370915185E+01  0.000000000000E+00 -3.732852512348E+00 -2.089292446488E+01  9.257611042743E+00 -1.525824982789E+01  2.555252571589E+00 -2.751247376082E+01      134
 O   1.737641122391E+00  2.049933182234E+01  1.256292460552E+01  0.000000000000E+00  3.741946303538E+01  2.134879929147E+01 -8.179269175042E+00  1.308351697711E+01 -1.817144067135E+01 -6.485755040217E-01      135
 O   8.216334896050E+00  1.525659894967E+01  1.205501702752E+01  0.000000000000E+00 -2.863147955112E+00  1.978860803060E+01 -6.063412271023E+00  1.563598856774E+01 -4.132638362752E+00 -5.316470255578E+00      136
 Si  8.804282864632E+00  1.412912840307E+01  2.571710826678E+01  0.000000000000E+00 -2.825334771467E+01 -6.085865375478E+00  2.193605376917E+01 -1.107717718273E+01  7.509834321731E+00 -4.534102138866E+01      139
 Si  8.865893446423E+00  1.649825778031E+01  2.389761674134E+01  0.000000000000E+00 -7.098823198225E+00  2.065506505257E+01 -1.912081857229E+01  2.991872444755E+01 -7.093725784674E+00 -1.320997322705E+01      140
 O   8.098289292039E+00  1.535186773067E+01  2.478916940741E+01  0.000000000000E+00  5.146607283078E+00 -3.410360194727E+00  1.774023369795E+01 -5.506821586175E+00  5.795496502252E+00  9.756385752876E+00      142
 O   7.501352545629E+00  1.292273651372E+01  2.527882922838E+01  0.000000000000E+00  1.059341612997E+01  5.303657866750E+00  3.122855759993E+01  1.037475780435E+01  9.266901482351E+00  1.824949895303E+01      143
 O   8.099876109491E+00  1.796692704365E+01  2.377655646797E+01  0.000000000000E+00 -5.593014833730E+00  8.963021947765E+00  3.446907793755E+01  1.186122685014E+01  1.174245990073E+01 -1.240627487548E+01      148
 O   1.304990096804E+01  1.624824585235E+01  9.685239724572E-01  0.000000000000E+00 -3.324514171852E+00 -1.103415965735E+01  6.509481195324E+01 -1.263666948936E+01 -5.738194008326E+00 -4.139305251141E+00      150
 Ca  4.781811580733E+00  1.171900207378E+01  7.225948025427E+00  0.000000000000E+00 -2.402121540793E+00  2.249623725496E+00  1.316606857094E+01  1.387120167302E+00  8.712719624291E+00 -5.886987984107E+00      151
 Ca  1.185618922708E+01  2.164791293803E+01  1.062079389013E+00  0.000000000000E+00  3.645954802773E+01  3.568278471168E+00 -3.585316802558E+01  5.359463060139E+00 -1.277492916248E-01  6.657055706072E+01      152
 H   6.944312138554E+00  1.834117586626E+01  1.520364513957E+01  0.000000000000E+00  6.125292040581E+00 -7.924376996581E+00  1.748718384640E+00 -6.568794535677E+00  7.987325535351E-01  1.617799665495E+01      155
 H   1.099679821283E+01  1.371561057622E+01  3.374109501145E+01  0.000000000000E+00 -1.467195335363E+00 -1.736998197300E+01  3.059319213411E+01 -4.273103328803E+01  9.970842987494E+00 -1.829939903380E+00      156
 H   1.510131287635E+01  1.401060341153E+01  1.218168764595E+01  0.000000000000E+00  2.041013775669E+01  2.554500380484E+01  7.423501986807E+00  2.221041079566E+01  9.202717176730E+00  1.893599238855E+01      159
 H   1.651242308106E+01  3.874491064629E+00  1.186374730494E+01  0.000000000000E+00  4.644464797768E+00  2.827079311204E-01  1.288370574576E+00 -5.772648057168E-01  1.793204075051E+00  1.172852655415E+00      160
 H   1.654058387696E+01  1.702536051167E+01  1.617739221268E+01  0.000000000000E+00  1.442224121116E+01 -2.427158214180E+01  2.681321037330E+01 -2.306270716917E+01  2.741518220980E+01  1.484493279275E+01      164
 H   2.015969370235E+01  6.381065711645E+00  4.003251941483E+00  0.000000000000E+00  1.011457369001E+01  1.405472771582E+01  1.119171571064E+01  8.833883597670E+00  5.662602520052E+01  3.201524800631E+00      168
 H   4.530821849207E+00  1.989376504693E+01  3.404921736653E+01  0.000000000000E+00 -4.269087010733E+00 -8.859973859355E+00  1.764167151668E+01 -1.516430776614E+01  2.347521527555E+00 -1.874454939588E+01      169
 Si  1.261700833493E+01  8.250926210067E-01  1.967415407854E+01  0.000000000000E+00  2.283663395780E+01 -1.494533564795E+02  4.311209764197E+01 -5.688481792339E+01  2.764772976329E+01 -6.378625056569E+01      177
 Si  1.122719521895E+01  3.547493555063E+00  1.907917539769E+01  0.000000000000E+00  7.764887983477E+00  4.111762325982E-01  8.991848649186E+00 -3.207722538307E+00  5.291279002334E+00  2.197155381783E+00      178
 Si  8.257268403493E+00  3.899232718963E+00  1.977866999739E+01  0.000000000000E+00  1.252888495025E+00  1.727337098924E+00  9.217706255251E+00  6.853312303676E+00  3.848240282295E+00  7.315629091529E-01      179
 O   1.242163221609E+01  2.160166508999E+00  1.890003539082E+01  0.000000000000E+00 -4.226908320911E+01  3.793419934343E+00 -2.431879303195E+00  6.750974758470E+01 -1.598299139318E+00 -8.521430707853E+00      180
 O   1.241453008209E+01  3.458266957379E-01  2.125883807167E+01  0.000000000000E+00  3.047531251019E+00  1.988901062796E+01 -2.119718481375E+00  4.457256468319E+01 -1.237852641046E+00  6.535140680881E+00      182
 O   1.175646062618E+01  4.327525146007E+00  1.772915090546E+01  0.000000000000E+00 -1.260939024575E+00  2.360294289655E+00 -6.687124213491E+00  9.655078652857E+00 -4.434330382628E+00 -4.658254927367E-01      184
 O   1.163538769031E+01  4.358226804442E+00  2.038168291896E+01  0.000000000000E+00  6.616312399975E-01 -9.083852461796E-02  8.545275258059E+00 -4.810182456344E-01  4.878281687692E+00  2.466419284799E-01      185
 O   9.575326546962E+00  3.289912107045E+00  1.890346770736E+01  0.000000000000E+00  1.163767319739E+01  2.021349589990E+00 -9.446087153424E+00  9.067375498654E+00 -4.784803004683E+00  4.224922597934E+00      187
 O   6.968260860407E+00  4.219480999482E+00  1.888174192232E+01  0.000000000000E+00  1.484395478604E+00 -4.140497665864E-01  1.728532690690E+01 -3.998643003852E+00  6.379107787840E+00  9.243735594768E-01      188
 Ca  1.129120412831E+01  5.060074963994E+00  2.279540024223E+01  0.000000000000E+00 -4.441048266287E+00 -2.156161810538E+00 -7.481099416216E+00 -9.713407767273E+00 -3.705599362814E+00 -1.990225036299E+00      190
 O   1.585079848135E+01  1.932200337633E+01  7.961086956220E+00  0.000000000000E+00 -2.810417810270E+01  3.451022463227E+01  1.428408166261E+01  1.421896548847E+01  2.844009884207E+01 -3.425878039068E+01      193
 O   4.370847089047E+00  1.250794718129E+01  1.312855179100E+01  0.000000000000E+00  2.087207495497E+00 -6.227288027235E+00 -9.186884959869E+00 -6.536266279195E+00 -3.058560458419E+00  5.972911103546E+00      194
 Si  1.826545614051E+01  1.602276020010E+00  2.005502187096E+01  0.000000000000E+00  1.508652810843E+01  3.074496223240E+00 -2.143478112434E+01 -5.602813616190E+01 -1.952209561412E+01  3.404581204436E+00      196
 Si  1.678564068636E+01  4.170458943059E+00  1.927415311698E+01  0.000000000000E+00 -2.225398613184E+01  6.223417861098E+00 -2.033297739728E+00  2.961147614632E+01 -1.770775870686E+00 -5.508215870333E+00      197
 O   1.992380079132E+01  1.505470450593E+00  2.027425412838E+01  0.000000000000E+00 -5.316679494709E-01  1.852325893238E+01  2.821699050556E+01  2.521958702049E+00  2.772924193431E+01 -4.909706185364E+00      202
 O   1.789052418407E+01  3.117537079158E+00  1.993036383464E+01  0.000000000000E+00 -2.248838480443E+01  8.000317162996E+00  1.559634154269E+01  3.491623624618E+01  1.400008187847E+01 -3.717242540370E+00      205
 O   1.556516262226E+01  5.080691586747E+00  1.998716888343E+01  0.000000000000E+00  1.293436764111E+01 -2.982616769982E+00  1.280853072462E+01 -1.173345480204E+01  9.974742538256E+00  4.221962497205E+00      206
 Ca  1.411891077299E+01  5.082238513578E+00  1.788883118048E+01  0.000000000000E+00  6.864245885761E+00  1.303184198797E+00  4.925111833348E+00  4.587042120724E+00  3.887186022413E+00  2.470851708619E+00      209
 O   2.354426489906E+01  1.900972511994E+01  1.499934836799E+01  0.000000000000E+00 -8.294749323408E+00  2.014218188449E+01 -1.642697619270E+01  1.589289698145E+01 -2.578519209521E+01 -6.697210775227E+00      210
 O   1.459479303782E+01  1.821785323881E+01  5.099599000930E+00  0.000000000000E+00  6.456774404519E+00 -4.189343009555E+01 -3.923263986851E+00 -1.172694122959E+01 -1.122818204144E+01  8.059625661896E+00      212
 Si  1.319903738899E+01  3.478603177103E+00  1.463500667529E+01  0.000000000000E+00  4.969830112421E+00 -8.159318899602E+00  3.098065067921E+01 -2.159723043441E+01  2.794086642548E+01  1.688455985482E+00      213
 Si  1.130002153408E+01  5.028625605403E+00  1.628596848493E+01  0.000000000000E+00 -5.355050611856E-01  5.895041865351E+00  6.484402121814E+00  1.909198294308E+01  4.499203328309E+00 -2.383048729080E-01      214
 Si  9.133346600359E+00  6.177134533573E+00  1.479707593389E+01  0.000000000000E+00 -2.071705084347E+00 -6.790185427846E+00 -4.726464060099E+00 -1.626561455557E+01 -2.917362501071E+00 -1.401151361035E+00      215
 O   1.162114893872E+01  3.948806721914E+00  1.512211857981E+01  0.000000000000E+00 -2.568307641624E+00 -7.646468399494E-01 -3.528358612860E+00 -3.994037445540E+00 -2.711497118135E+00 -7.613279839637E-01      216
 O   1.422647572717E+01  3.643689381957E+00  1.597302038801E+01  0.000000000000E+00 -1.359099008158E+01 -2.909544946541E+00 -3.652874268773E+00 -1.201523528363E+01 -3.253456507082E+00 -3.490481096550E+00      217
 O   1.374348038300E+01  4.678624844677E+00  1.374847317438E+01  0.000000000000E+00 -7.741010391566E-01 -3.885691733027E+00 -2.333247744053E+01 -9.724555743956E+00 -2.332400419477E+01 -2.347899927808E-01      218
 O   1.300066763906E+01  1.766741906894E+00  1.442115582630E+01  0.000000000000E+00 -6.126652157633E+00  4.031983588974E+01  7.063476840131E+00  4.705783300120E+01  6.367722246457E+00 -1.810340661590E+01      219
 O   1.243483418469E+01  6.318251721722E+00  1.621464480020E+01  0.000000000000E+00 -1.199251495757E+01 -4.163492381847E+00 -1.211767036383E+01 -1.068484654828E+01 -9.292909190164E+00 -6.093505321664E+00      220
 O   9.671718213281E+00  5.503700092235E+00  1.637382570685E+01  0.000000000000E+00  3.070324291598E+00 -4.013451991316E+00 -2.694119495001E+01 -1.194025151940E+01 -1.591366920295E+01  1.747170845368E+00      222
 O   1.049372817740E+01  6.686215273861E+00  1.422662338210E+01  0.000000000000E+00  1.222260596201E+01 -1.657684992342E+00 -1.081492679644E+01 -3.527146390935E+00 -7.977219823156E+00  7.787792221034E+00      223
 O   2.146500011670E+01  2.053112361292E+01  1.321928294339E+01  0.000000000000E+00 -3.030005698453E+01 -1.572995801466E+01  9.022176678280E+00 -1.012797787417E+01  1.464988867259E+01 -2.898179417870E+01      224
 Ca  1.563235899415E+01  7.774924578358E+00  6.453263411091E+00  0.000000000000E+00  2.990283997135E+00 -2.563852757765E+00  1.790155380065E+00 -2.128022854288E+00  4.336465098943E+00  1.487250424219E+00      225
 Ca  1.629372625617E+01  4.319366893402E+00  1.567509438228E+01  0.000000000000E+00  2.074921617437E+00 -1.682574958819E-01  6.977820834399E+00  3.739634523016E+00  7.253206887788E+00  9.460039246487E-01      226
 Si  2.118024963312E+01  2.513886541980E+00  1.995982292320E+01  0.000000000000E+00 -1.216788529970E+01 -1.234924365335E+00 -6.229993009903E+01 -1.056126105743E+01 -6.610920731613E+01  1.113772833470E+00      228
 Si  2.247037073121E+01  4.539152929144E+00  2.131338043756E+01  0.000000000000E+00  3.673498949561E+01  1.092119744252E+01 -3.888600010165E+01  5.281030506459E+01 -4.099691464231E+01  7.441940909424E+00      229
 O   2.237411852663E+01  1.439498434776E+00  2.059494010602E+01  0.000000000000E+00 -6.250483212528E+01  4.060503431772E+01 -3.716072030031E+01  9.593039731872E+01 -4.037100162729E+01 -3.586114340198E+00      230
 O   2.110379529165E+01  3.767977644145E+00  2.101171896951E+01  0.000000000000E+00 -2.046701403739E+01 -2.035195271500E+00 -2.010957258509E+01 -1.572163459035E+01 -2.019769557428E+01 -3.624963304581E+00      236
 O   2.261977235249E+01  4.155836432098E+00  2.287312527588E+01  0.000000000000E+00  5.225929613123E+01  2.855075453681E+00  5.078888828005E+01  1.925224201632E+01  5.022632793176E+01  9.631264921368E+00      237
 H   1.425505439578E+01  1.728720380035E+01  5.283570813835E+00  0.000000000000E+00 -1.629862697359E+00  2.930973098462E+01  8.870675866439E-01  8.958073322913E+00  2.393305048023E+00 -1.976545850585E+00      243
 H   1.995625997158E+01  1.698763790321E+01  6.027953069474E+00  0.000000000000E+00 -2.457730485255E+01  1.166419294321E+01  9.445020839838E+00  4.138963171664E+00  3.126887172884E+01 -2.092127262655E+01      247
 H   1.191709021694E+01  7.079276584010E+00  6.572140978051E+00  0.000000000000E+00 -3.260707740851E+01 -6.186519440475E+00 -9.987134161368E-01 -5.743337958866E+00 -1.810940745294E+00 -1.937004045190E+01      248
 H   5.537299255000E+00  9.326835924922E+00  9.759393290115E+00  0.000000000000E+00 -1.383292421244E+00 -1.924624546657E+00  3.944945299651E+00 -2.013884240898E+00  2.238289002135E+00 -2.329970054893E+00      249