     8448
Lattice="     49.70      0.00      0.00      0.00     49.70      0.00      0.00      0.00     49.70" pbc="T T T" config_type=md Properties=species:S:1:pos:R:3:charge:R:1:forces:R:3:id:I:1
 Si  1.093818907017E+01  1.766339469710E+01  1.569608591890E+01  0.000000000000E+00 -3.574729480464E+00  2.366844202427E+01  1.806993000594E+01  2.103230471550E+01  1.259245852188E+01 -5.772606173082E+00        1
 Si  1.237211126859E+01  2.036956836856E+01  1.710319267772E+01  0.000000000000E+00  1.614033484394E+00 -2.305241857693E+01  5.045434581586E+01 -1.935583265559E+01  3.649767573695E+01  2.657360954469E+00        2
 Si  1.089681834336E+01  2.259942300690E+01  1.825102618090E+01  0.000000000000E+00  2.128813933444E+01 -7.646307600020E+01 -1.894639310859E+01 -6.175067396747E+01 -1.131198881202E+01  4.415047132926E+01        3
 O   1.145494348882E+01  1.931469414972E+01  1.640656237494E+01  0.000000000000E+00 -1.832932181911E+01 -4.893614834670E+01 -3.102457137360E+01 -4.156803954625E+01 -2.166113191344E+01 -3.090589187572E+01        4
 O   9.349676027669E+00  1.788359110203E+01  1.526590683209E+01  0.000000000000E+00  6.683011334468E+00 -8.507150575852E-01  1.005850344332E+01 -7.261928958036E-01  6.160377470703E+00  1.278292870065E+01        5
 O   1.154254290184E+01  1.699502372119E+01  1.438428092304E+01  0.000000000000E+00  5.325146249959E+00  7.919504130627E+00 -7.180490518574E+00  6.702925165330E+00 -5.761923054088E+00  7.840645480500E+00        6
 O   1.140188541719E+01  1.686421287831E+01  1.711215244042E+01  0.000000000000E+00 -2.510303333441E+01 -8.021078080240E+00  2.099353072118E+01 -8.139004875949E+00  1.398806097705E+01 -3.712920122883E+01        7
 O   1.282516654434E+01  2.141412374770E+01  1.596991869542E+01  0.000000000000E+00  4.807955635942E+00  9.554425117750E+00 -1.691304983956E+01  7.125362406125E+00 -1.358257891615E+01  8.027822220129E+00        8
 O   1.385234490493E+01  1.958967866726E+01  1.751416920947E+01  0.000000000000E+00 -7.834825699582E-01  1.660531822834E+01  5.997596108655E+00  1.484599916967E+01  4.743631793429E+00 -1.107983658523E+00        9
 O   1.168610085956E+01  2.084301403209E+01  1.864382310906E+01  0.000000000000E+00  2.451159635331E+00  4.956746983294E+01 -4.678712326715E+01  4.433750023418E+01 -2.932655165359E+01  4.371822157631E+00       11
 O   1.970047424708E+01  1.798874005208E+01  2.124615815622E+01  0.000000000000E+00 -4.338280494613E+00  1.485470698999E+01 -1.760784758726E+01  1.754461141580E+01 -1.632685520783E+01 -3.961336113631E+00       13
 Ca  3.779895529073E+00  1.578615448824E+01  1.725313047494E+01  0.000000000000E+00 -3.285566345227E+00 -1.454306026296E+01 -1.741181268699E+01 -1.589451797198E+01 -3.853682087279E+00 -1.411543554543E+01       14
 Ca  2.137974910227E+01  1.360352946718E+01  1.794477523046E+01  0.000000000000E+00  8.262737151842E+00 -5.856689147437E+00  7.430952976576E+00 -7.725713433343E+00  8.853379782673E+00  5.257423171195E+00       15
 O   6.261914158237E+00  4.204255466167E+00  1.616600840683E+01  0.000000000000E+00 -7.286959752903E+00 -7.249371066914E+00 -2.859616263943E+00 -2.885518229082E+01 -1.107674270585E+00 -4.885891640910E+00       16
 O   9.781614671076E+00  1.685291841909E+01  1.966528712454E+01  0.000000000000E+00 -2.238566197126E+01  8.584288168891E+00  1.972722313178E+01  1.001681058456E+01  9.812421958723E+00 -3.856865636656E+01       18
 Si  2.054429950523E+01  1.979031915234E+01  1.800638396479E+01  0.000000000000E+00  1.207394185647E+01  2.462538144288E+01  2.248502476918E+01  2.240560498932E+01  2.565418376859E+01  1.163082550980E+01       19
 Si  1.797661214797E+01  2.152892952888E+01  1.874377914582E+01  0.000000000000E+00  2.717693902615E+01  5.056910797358E+01 -1.850296147084E+01  4.402709341337E+01 -1.774565093636E+01  3.254731204570E+01       20
 O   1.902314870769E+01  2.035058005438E+01  1.845379557983E+01  0.000000000000E+00  1.256579187027E+01 -1.739595453074E+01  9.910623177309E-01 -1.577455718552E+01  1.021639465292E+00  1.344263020450E+01       22
 O   2.181031382855E+01  2.081389250509E+01  1.826250709130E+01  0.000000000000E+00 -1.368922358692E+01  1.408061665739E+01 -2.285671055761E+01  1.235460217221E+01 -2.729702049438E+01 -1.306382065183E+01       23
 O   2.029721151509E+01  1.970664963617E+01  1.642115392765E+01  0.000000000000E+00  1.196371755833E+01 -3.596559315593E+01 -3.501265944537E+00 -2.996940384166E+01 -4.327706552170E+00  1.161562464345E+01       24
 O   2.119690008156E+01  1.873243096845E+01  1.917875244030E+01  0.000000000000E+00 -2.066034813759E+01  9.499708156505E+00 -7.552721041420E+00  9.726049507164E+00 -8.347481086545E+00 -1.825826152798E+01       25
 O   1.882260238068E+01  2.246495681565E+01  1.980151820384E+01  0.000000000000E+00 -9.543304777285E+00 -1.030706887513E+01  1.381242106916E+01 -9.085065848732E+00  1.312958466229E+01 -1.139002595732E+01       26
 O   2.214597575888E+01  1.713724851101E+01  2.109389716403E+01  0.000000000000E+00 -3.534641217293E+00 -2.402960557987E+00 -6.294391169159E+00 -2.957756192123E+00 -6.608330038074E+00 -2.735215896447E+00       27
 O   1.801084966843E+01  2.302352768146E+01  1.759543847223E+01  0.000000000000E+00  2.287592378310E+01 -4.509927694746E+01 -1.952210775572E+01 -3.446654933380E+01 -1.998300574061E+01  2.924262176161E+01       29
 Ca  4.446608948279E+00  1.085007058366E+01  1.459096626067E+01  0.000000000000E+00  1.257153363540E-01  2.376010373073E+00  1.722354552554E+00  3.195213056098E+00  5.248889640805E-01  3.067551675345E-01       32
 Si  1.315934653506E+01  1.914926948305E+01  1.216919221611E+01  0.000000000000E+00  2.931325963735E+01  6.797411664493E+01 -2.678127860501E+00  4.319695286052E+01 -2.896035493208E+00  4.265618408382E+01       37
 Si  1.238973722793E+01  2.156478706709E+01  1.428932332444E+01  0.000000000000E+00  2.543763013217E+01 -2.467448186073E+01  1.254609637820E+01 -1.634987853458E+01  1.087825041346E+01  4.427511796255E+01       38
 O   1.252880453184E+01  2.008121512932E+01  1.357925595409E+01  0.000000000000E+00  2.004745116070E+01  8.794446381234E-01 -1.595325359544E+01  5.946952792261E-01 -1.471915667691E+01  3.213213028661E+01       40
 O   1.376394533977E+01  1.770379791539E+01  1.231686724200E+01  0.000000000000E+00  4.969111296823E+01 -5.425729601401E+01  1.685597632888E+01 -3.774782761915E+01  1.883634306361E+01  6.391491686894E+01       41
 O   1.443635395474E+01  2.007097027306E+01  1.142247272456E+01  0.000000000000E+00 -3.775302072567E+01 -2.163438744807E+01  1.556738600021E+01 -1.231221994633E+01  1.967492502441E+01 -5.248830550144E+01       42
 O   1.186681633011E+01  1.888759804779E+01  1.132121521204E+01  0.000000000000E+00 -2.450794147513E+01 -1.621576853231E+00 -9.299786537499E+00 -9.719722164689E-01 -9.747969337461E+00 -3.900761035514E+01       43
 O   1.320068314332E+01  2.305416603934E+01  1.402599173727E+01  0.000000000000E+00  1.039884294262E+01 -2.126752793244E+01  2.320870459839E+01 -1.293901373589E+01  2.184307258331E+01  1.816092767422E+01       44
 O   1.085019142943E+01  2.190776632757E+01  1.409328197788E+01  0.000000000000E+00 -6.121620788797E+00  1.259780190828E+01 -6.799672287304E+00  8.104175110332E+00 -5.234958478122E+00 -1.236024623705E+01       46
 O   8.551966104047E+00  2.090492331247E+01  1.498910445523E+01  0.000000000000E+00  7.571884958445E+00  1.902233007288E+01  4.799117664656E+00  1.363926038773E+01  2.738114990129E+00  1.850915596032E+01       47
 O   1.737453700346E+01  1.578856179655E+01  8.856693935865E+00  0.000000000000E+00 -1.499428196963E+01  4.498540659775E+00 -1.713868837649E+00  2.523484931375E+00 -3.362166261412E+00 -1.362558020540E+01       48
 Ca  7.218269329176E+00  2.099895674316E+01  1.307006096669E+01  0.000000000000E+00  3.285031587889E+00  5.822882807395E+00 -6.861605292858E-01  3.624248300781E+00 -3.789493802712E-01  9.556617115292E+00       49
 Si  2.087656567443E+01  2.086782148001E+01  2.290345109125E+01  0.000000000000E+00 -1.046049736619E+01 -1.545147370171E+01  3.699861027252E+01 -1.695874543272E+01  3.372434635024E+01 -1.045611596437E+01       51
 Si  1.971639494141E+01  2.272251273341E+01  2.111075188458E+01  0.000000000000E+00  2.054552304565E+01  5.355549388821E+01  1.378469318639E+00  4.975667774049E+01  1.287421956806E+00  2.367805627787E+01       52
 O   1.955301329415E+01  2.143612007379E+01  2.217557156506E+01  0.000000000000E+00 -1.388632345418E+01  4.294663146723E+01 -4.854023204088E+01  4.442810062182E+01 -4.279969964301E+01 -1.522368406697E+01       54
 O   1.986026163892E+01  1.973350211992E+01  2.377316072875E+01  0.000000000000E+00  2.972802230917E+01 -1.050893731348E+01 -3.524945990881E+00 -1.266022900159E+01 -2.944764074105E+00  2.953828111255E+01       55
 O   2.199870138908E+01  2.022524735114E+01  2.197523176853E+01  0.000000000000E+00  3.792893813209E+00 -1.912093282726E+00  1.516303667797E+01 -2.077536670946E+00  1.517923085153E+01  3.487124725773E+00       56
 O   2.122210018973E+01  2.204035324036E+01  2.401901228997E+01  0.000000000000E+00  3.823912841703E+01 -2.100756311948E+01 -2.673056637666E+01 -2.289350407621E+01 -2.361790530457E+01  3.971350103805E+01       57
 O   1.648286879192E+01  2.107040578786E+01  1.871954502042E+01  0.000000000000E+00 -3.970148715821E+00 -2.218537687119E+00  9.861729090137E+00 -1.971011689649E+00  8.683415461056E+00 -5.075126516902E+00       58
 O   1.574273902790E+01  1.541250104904E+01  1.277978913620E+01  0.000000000000E+00  4.925738188189E+01 -2.124185703287E+01 -4.676282269314E+00 -1.761339401553E+01 -5.760462132984E+00  4.822410182764E+01       59
 H   3.643307959169E+00  7.882050533506E+00  1.660968146384E+01  0.000000000000E+00 -1.032009426220E+00  5.653580108146E+00 -4.842354188685E+00  1.191367199785E+01 -1.071857939474E+00 -2.420187363322E+00       70
 H   1.414712514330E+01  1.961423685628E+01  1.845677906281E+01  0.000000000000E+00 -3.788372065026E+00 -1.295876052503E+00 -1.158064421967E+01 -1.219404974514E+00 -8.876566298933E+00 -5.252376453199E+00       73
 H   1.853721745229E+01  1.002914038094E+01  1.800345721020E+01  0.000000000000E+00  1.871597770293E+01 -1.219417059707E+01  4.794082192230E+01 -2.188993475209E+01  4.936215474836E+01  1.012585455353E+01       83
 Si  2.048811833220E+00  2.084699490207E+01  2.156846980195E+01  0.000000000000E+00  1.844521877661E+01  1.845370500800E+01 -4.684205127794E+01  1.909235269010E+01  4.529357461458E+00 -2.191973613352E+01       89
 Si  2.619863426309E+00  2.055617983467E+01  1.841861607064E+01  0.000000000000E+00  1.648601136590E+00 -5.998895777079E+01  4.377121266730E+01 -5.375092018773E+01  5.166588897196E+00 -8.890176414661E+00       90
 O   1.704849835362E+00  2.022188834727E+01  1.985436536367E+01  0.000000000000E+00  2.284893504594E+01  2.500447633212E+00  4.875214694986E+00  2.455003213842E+00 -8.401240245785E+00  1.555178188752E+01       92
 O   9.576901811263E-01  1.988361089682E+01  2.230333402359E+01  0.000000000000E+00  2.587969058793E+01  4.839440232094E+00  1.224720033164E+01  5.428372771109E+00  1.549144809745E+01  4.296034850570E+00       95
 O   1.955800898835E+00  1.944340590022E+01  1.734924130698E+01  0.000000000000E+00  3.086232557152E+00  3.742254119323E+01 -2.354820805514E+01  3.339192221844E+01 -2.040545427874E+00  4.942511395711E+00       96
 O   4.059091757778E+00  1.992835617753E+01  1.877515963962E+01  0.000000000000E+00  2.565806845774E+00  7.543654148363E+00 -8.035180610971E+00  7.107124623821E+00 -1.778402250936E+00  1.417427380003E+01       97
 O   1.088958665305E+01  1.454552069487E+01  2.118465158990E+01  0.000000000000E+00 -1.292435861742E+00 -9.393769416195E+00 -3.016712874403E+01 -1.368144436852E+01 -1.550686642817E+01 -1.726342162720E+00       98
 O   3.099300100115E+00  1.209420207893E+01  2.116479619810E+01  0.000000000000E+00  5.373168099654E+00  1.380929441391E+01 -1.702839375680E+01  2.416619963867E+01 -2.691056212200E+00  1.956441842202E+01      101
 Ca  2.233971682785E+01  2.297911483335E+01  1.871492618349E+01  0.000000000000E+00 -2.161890312299E+01  2.385740915287E+01 -1.349182114254E+01  1.943023717246E+01 -1.610497743144E+01 -2.223767030096E+01      102
 O   1.580926258817E+01  4.662121429983E+00  1.173133785191E+01  0.000000000000E+00  1.712442367793E+00  8.100481712930E+00 -3.185320780585E+01  2.043730412838E+01 -4.292568612677E+01  5.059736575217E-01      105
 Si  5.657144557208E+00  1.561515788191E+01  2.009307428772E+01  0.000000000000E+00 -1.265959047243E-01  1.022970753301E+01 -8.868984613529E+00  1.316325297233E+01 -2.497035909784E+00 -3.494368969156E-01      107
 Si  8.510573751068E+00  1.667152515470E+01  2.089265737517E+01  0.000000000000E+00 -9.205439937055E+00  3.932284478840E+01 -2.742672351373E+01  4.927915805885E+01 -1.117220988323E+01 -1.803271177240E+01      108
 Si  7.664142051724E+00  1.967906585296E+01  2.023117756582E+01  0.000000000000E+00 -8.919649128642E+00 -3.516056839475E+01  3.069169643089E+01 -3.614702587128E+01  1.162688234481E+01 -2.290280652462E+01      109
 O   7.332373971298E+00  1.568930056756E+01  2.025801190359E+01  0.000000000000E+00  1.781295528806E+00  1.481989053073E+00  1.320601912085E+01  1.913543038382E+00  4.779909861195E+00  3.811491484269E+00      110
 O   5.421118620499E+00  1.615669226948E+01  1.851049097140E+01  0.000000000000E+00  1.225379343827E+00 -1.134933071543E+01  2.680717523943E+01 -1.300276567971E+01  7.850946637668E+00  3.652027995981E+00      111
 O   4.980945194382E+00  1.669118079105E+01  2.109647986815E+01  0.000000000000E+00 -1.361784224734E+00 -1.984314588921E+01 -3.744031862243E+00 -2.508034230850E+01 -8.839776886195E-01 -4.563348080815E+00      112
 O   5.060394881248E+00  1.399481708574E+01  2.049864457854E+01  0.000000000000E+00  1.018407872159E+00  1.564087567146E+01 -1.740773753543E+01  2.290967787018E+01 -4.297358568314E+00  2.816466347787E+00      113
 O   9.075725812177E+00  1.630245086668E+01  2.232720215310E+01  0.000000000000E+00 -1.138375752248E+00 -2.031764705267E+01  2.277959332727E+01 -2.782625856260E+01  9.259617113400E+00 -2.044829818893E+00      114
 O   1.113009242905E+01  1.388685869863E+01  3.496209358428E+01  0.000000000000E+00 -2.649003787333E+01 -1.087522793101E+01  5.568357646129E+01 -2.737989526111E+01  1.772672312372E+01 -3.305124510093E+01      115
 O   7.863185993444E+00  1.829686777751E+01  2.117898984475E+01  0.000000000000E+00  1.139025170495E+01 -2.941208984120E+01 -1.476008006506E+01 -3.404508135679E+01 -5.480018437162E+00  2.650400608250E+01      117
 O   6.110282083090E+00  1.993566074619E+01  2.050395617425E+01  0.000000000000E+00 -6.851874379577E+00  3.542408064470E+01  6.999463352113E+00  3.643389633778E+01  2.085875289051E+00 -2.235521065137E+01      118
 O   5.986535095372E+00  9.254595493658E+00  2.227162974280E+01  0.000000000000E+00 -7.696785901993E+00  1.606025697160E+01  6.517695985433E+01  3.864978183982E+01  1.751933567878E+01 -1.189847532662E+01      119
 Ca  2.364892801983E+01  1.895077647292E+01  2.067001256961E+01  0.000000000000E+00 -5.590888695038E+00 -4.449190136279E-01  5.723562073342E+00 -4.852825749534E-01  6.548428891066E+00 -4.480189624485E+00      120
 Ca  3.213148265466E+00  1.246476466485E+01  1.889852576072E+01  0.000000000000E+00 -3.014852804105E+00  3.097355321006E+00 -1.428654038229E+01  4.696073363441E+00 -2.499700660513E+00 -4.443479318101E+00      121
 Si  1.032668375163E+00  1.723426914511E+01  1.403249725225E+01  0.000000000000E+00 -1.942882856286E+02 -6.069739609752E+00 -3.306776587103E+01 -4.942107128452E+00 -1.734472643455E+02 -3.884102676771E+01      125
 Si  2.654637739335E+00  1.900702347742E+01  1.580283818507E+01  0.000000000000E+00 -6.091797163479E+00  1.732765127746E+01  5.373949819471E+00  1.440657289608E+01 -8.782491442211E-01 -3.855866271321E+01      126
 Si  3.341515332684E+00  2.016562980863E+01  1.307338760706E+01  0.000000000000E+00 -1.530820388216E+01  1.321506611459E+02  3.269435163795E+01  8.567333785672E+01  7.581051079279E+00 -7.750509292322E+01      127
 O   1.156739988688E+00  1.845827204266E+01  1.508280100487E+01  0.000000000000E+00  3.055277424593E+01  1.642802275799E+01  8.734410698449E+00  1.342382415806E+01  3.340101394875E+01  2.381396253533E+01      128
 O   2.330564721188E+00  1.684206508189E+01  1.309710269684E+01  0.000000000000E+00  1.937560128010E+01  1.348809788804E+01  6.939964234346E+00  1.048891584053E+01  4.869012191648E+00 -1.694332698308E+01      129
 O   4.354604262779E-01  1.591346007032E+01  1.491503786583E+01  0.000000000000E+00  1.123627715875E+01  6.162771591458E+00 -3.373124359731E+00  5.776114763156E+00  1.477030051164E+01  1.283121942442E+01      131
 O   3.621320251852E+00  1.780676403007E+01  1.614488924595E+01  0.000000000000E+00  3.234812063889E+00 -7.746288069122E-01 -6.579179562286E+00 -7.023340272944E-01 -1.482438858372E+00  1.738778525260E+01      132
 O   2.730800787547E+00  4.932539404051E+00  9.451508043468E+00  0.000000000000E+00 -4.449302317393E+00 -3.331701182973E+00  8.233622009698E+00 -6.384054530501E+00  2.983960527819E+00 -1.460022840297E+01      133
 O   3.115319719352E+00  2.033088963155E+01  1.492195852050E+01  0.000000000000E+00  2.939579687262E+00 -3.942341812960E+01 -2.254824118149E+01 -2.893501566962E+01 -3.595847145470E+00  2.599106331026E-01      134
 O   1.903628866621E+00  2.054282708581E+01  1.217591610514E+01  0.000000000000E+00  4.614083567272E+01 -2.809785987469E+01  2.225835637374E+01 -1.665385115395E+01 -7.754568368726E+00  2.634724220719E+01      135
 O   8.489037237524E+00  1.558086806010E+01  1.189949944300E+01  0.000000000000E+00 -7.751611145727E+00 -5.719495210859E+00  6.455402074124E+00 -4.368121841050E+00  4.605248216779E+00 -1.422738847003E+01      136
 Si  8.634317519012E+00  1.400717409824E+01  2.582017476817E+01  0.000000000000E+00 -1.574295837203E+01 -2.975955767012E+01  2.808637726736E+01 -5.485738769839E+01  9.392140117659E+00 -2.553929227792E+01      139
 Si  8.944617187834E+00  1.641572652100E+01  2.404620580727E+01  0.000000000000E+00  1.018498082558E+01  8.490471955681E-01 -1.781414358323E+01  1.243707586051E+00 -6.626438123263E+00  1.869212022644E+01      140
 O   8.062574939687E+00  1.524505882544E+01  2.496168162034E+01  0.000000000000E+00  5.862351219419E+00  2.428263715252E+01 -2.752201165183E+01  3.975946990063E+01 -8.889556593536E+00  1.108478245027E+01      142
 O   7.583397167891E+00  1.269525827131E+01  2.573290216221E+01  0.000000000000E+00 -8.208868183596E+00 -4.266244995032E+00  1.240689301067E+01 -8.647548770650E+00  3.656268411792E+00 -1.374235047944E+01      143
 O   7.974599192156E+00  1.776478480567E+01  2.398348287083E+01  0.000000000000E+00  3.911775025122E+00 -3.750740309319E+00  1.513973710010E+01 -5.063715488003E+00  5.034020117017E+00  8.714148492607E+00      148
 O   1.331890912042E+01  1.622486089076E+01  1.051540893430E+00  0.000000000000E+00  5.428025646994E+00 -1.169910243070E+01  3.959222820928E+01 -8.756391215094E+00 -1.262086500654E+01  6.612325396750E+00      150
 Ca  4.879747674306E+00  1.149228516611E+01  7.667491524149E+00  0.000000000000E+00  2.402582701574E-01  3.897332177543E+00 -2.154313806325E+00  2.600245382547E+00 -1.359855774787E+00  6.833591508805E-01      151
 Ca  1.243022716789E+01  2.170021651511E+01  1.280283170578E+00  0.000000000000E+00 -6.944164012643E+00  2.360956486667E+00 -3.108128624736E+01  6.184128571591E+00  2.800327539798E+00 -1.212285669083E+01      152
 H   7.279338398969E+00  1.721609252069E+01  1.592981358544E+01  0.000000000000E+00 -1.026773973369E+01  4.847849679448E+01  9.511367275897E+00  4.485648621547E+01  4.346344711870E+00 -2.428384937546E+01      155
 H   1.055774966246E+01  1.333288503494E+01  3.569160325840E+01  0.000000000000E+00  1.935443372451E+01  1.620754264878E+01 -6.979708757880E+01  4.338694742345E+01 -2.064631763642E+01  2.444180322657E+01      156
 H   1.650447532150E+01  1.536605182922E+01  1.200591218063E+01  0.000000000000E+00 -3.754353546828E+01 -1.381196747219E+00  3.631377503828E+01 -1.079166401076E+00  4.992038879951E+01 -3.495390799283E+01      159
 H   1.582137651157E+01  4.113176112786E+00  1.247774586454E+01  0.000000000000E+00  9.087508488093E+00 -7.502807682553E+00  2.797901172384E+01 -2.456388156979E+01  3.547647818044E+01  2.357207298393E+00      160
 H   1.682153289964E+01  1.663072582269E+01  1.740912208629E+01  0.000000000000E+00 -2.775700276634E+01 -2.684557726873E+01  5.790920427741E+00 -2.810207667007E+01  5.595466446360E+00 -2.744215437564E+01      164
 H   1.985461381230E+01  7.620106395973E+00  6.609189650847E+00  0.000000000000E+00  1.622947333081E+01  3.313901727166E+00 -1.636152398844E+01  2.874264985418E+00 -4.915152345939E+01  6.228794712431E+00      168
 H   4.967812396509E+00  2.017547743240E+01  3.272099174916E+01  0.000000000000E+00 -9.413796679189E-01 -1.267429373842E+01 -1.940174388677E+01 -2.055542240479E+01 -2.945638828231E+00 -3.823168575925E+00      169
 Si  1.276684497336E+01  6.424833397265E-01  2.006181831655E+01  0.000000000000E+00 -3.380496031123E+01 -1.520366126781E+02 -3.518951406010E+01  1.740894754744E+01 -2.239373638043E+01 -1.156494366795E+02      177
 Si  1.125866832146E+01  3.882366807742E+00  1.951269809906E+01  0.000000000000E+00 -8.149604527463E+00 -1.100661224653E+01 -4.310005536991E+01 -5.811534617960E+01 -2.486838189076E+01 -2.922288315373E+00      178
 Si  8.218021003033E+00  4.015712608174E+00  1.999629229578E+01  0.000000000000E+00 -9.870980411293E+00 -3.075839716869E+00 -1.418411110167E+01 -1.531618321199E+01 -5.829346821833E+00 -4.823426525442E+00      179
 O   1.209305022152E+01  2.134811896955E+00  1.941230540786E+01  0.000000000000E+00 -7.091168731496E-01  2.571600921301E+00 -4.235475694612E+01  3.561953703036E+01 -2.638523308327E+01  5.528084356202E-01      180
 O   1.223401341894E+01  1.281552868751E+00  2.146024659282E+01  0.000000000000E+00  1.351240642443E+01 -1.965381843619E+00  1.202795487723E+01 -3.198720753047E+01  6.856871878615E+00  2.561055144583E+00      182
 O   1.145809010311E+01  4.583586321919E+00  1.795579190329E+01  0.000000000000E+00  5.839279515207E+00 -8.817287801204E-01  1.437651028538E+01 -3.454094104277E+00  9.174050975044E+00  2.335890316355E+00      184
 O   1.165425782425E+01  4.735568344047E+00  2.078941830095E+01  0.000000000000E+00  8.323118288127E-01 -1.225149174350E+00 -2.530187463654E+01 -5.378475573821E+00 -1.418387788357E+01  3.381999616225E-01      185
 O   9.527425745672E+00  3.357002247379E+00  1.916325330320E+01  0.000000000000E+00  7.494218954429E+00  3.721538821777E+00  2.465454169706E+01  2.098519127005E+01  1.225753850851E+01  2.589970720475E+00      187
 O   6.816725862256E+00  4.447477209698E+00  1.927594853390E+01  0.000000000000E+00  8.318062673139E+00 -4.350794536124E+00 -4.467474740111E+00 -1.885691316799E+01 -1.579872998018E+00  5.427003361316E+00      188
 Ca  1.094795358123E+01  4.966925824899E+00  2.280395864217E+01  0.000000000000E+00  5.080492097349E+00  3.530036397434E-01  9.731260516720E+00  1.620696721680E+00  4.671881320945E+00  2.304944683432E+00      190
 O   1.560491035321E+01  1.986608405781E+01  8.396867305923E+00  0.000000000000E+00  4.255610846766E+00  1.913129944259E+01  8.875542138883E+00  8.086293319905E+00  1.649448947653E+01  5.417674365672E+00      193
 O   4.406179068873E+00  1.244855179158E+01  1.294305131447E+01  0.000000000000E+00 -2.623749338043E+00  1.432837540398E-01  2.251791920850E+00  1.489754802098E-01  7.665733672870E-01 -7.412744469122E+00      194
 Si  1.822291180854E+01  1.451871891175E+00  1.980623290437E+01  0.000000000000E+00  2.122656067624E+01  6.215168320720E+00 -5.517816627300E+01  2.971191821916E+01 -5.076719346908E+01 -2.377516475626E+00      196
 Si  1.657912261859E+01  4.241893138705E+00  1.945249999854E+01  0.000000000000E+00  3.216863347808E+01 -1.870645480405E+00  4.168769142799E+00 -8.578417705249E+00  3.552989836384E+00  8.230586670440E+00      197
 O   1.987593388236E+01  1.517450374606E+00  2.031558317529E+01  0.000000000000E+00 -5.498745902309E+00  1.977265277909E+01 -2.581951020189E+01  8.294501699465E+00 -2.526075048990E+01 -5.367033545586E+00      202
 O   1.753397151428E+01  2.904780305816E+00  1.971827280123E+01  0.000000000000E+00  1.423247482983E+01 -1.565833626016E+00  3.384254979322E+00 -1.374777883248E+01  3.009362483350E+00  2.108411882400E+00      205
 O   1.573906406684E+01  4.793979186776E+00  2.064746087048E+01  0.000000000000E+00 -1.271850853666E+01  2.151163380606E+00  3.275457139438E+00  9.264967576330E+00  2.496802395665E+00 -3.873944788116E+00      206
 Ca  1.401731218623E+01  4.904121625887E+00  1.800139103751E+01  0.000000000000E+00 -4.495112087473E+00  3.646801356108E+00  1.232101401475E+00  1.338618865015E+01  9.594119673077E-01 -1.572667862860E+00      209
 O   2.338134195409E+01  1.899563566660E+01  1.485647843416E+01  0.000000000000E+00  1.595087968840E+01 -1.852319961533E+01  2.474697435167E+01 -1.448698640292E+01  3.894714835751E+01  1.295892681086E+01      210
 O   1.438485883355E+01  1.751073449832E+01  4.709397162080E+00  0.000000000000E+00  1.195839066049E-01  2.216335305013E+01  2.595680077973E+00  5.960688397535E+00  7.928507665348E+00  1.455698705882E-01      212
 Si  1.318120594439E+01  3.626145973103E+00  1.457494706220E+01  0.000000000000E+00 -7.593840451224E+00 -2.631449649792E+00  2.206036378128E+00 -9.786914284224E+00  1.995082362688E+00 -2.179405886165E+00      213
 Si  1.111291506682E+01  5.357277092350E+00  1.641452626646E+01  0.000000000000E+00  3.991892106657E+01 -3.054726626409E+01  1.586712936044E+01 -9.359585024571E+01  1.074231799776E+01  1.924398054834E+01      214
 Si  9.338396863153E+00  6.208600127056E+00  1.453594759642E+01  0.000000000000E+00  8.092520363529E+00 -1.346428085856E+00  5.976232742787E+00 -3.152338320689E+00  3.839339178168E+00  5.380283542612E+00      215
 O   1.188346823172E+01  4.225679910581E+00  1.539021086514E+01  0.000000000000E+00 -6.071440505356E+00  7.768341370700E+00  3.787236504677E+00  2.837777258784E+01  2.924294220768E+00 -2.165192114255E+00      216
 O   1.421472090428E+01  3.647836925766E+00  1.594948364408E+01  0.000000000000E+00  5.364612180849E+00  7.345169639258E-01 -2.464296403176E+01  5.175602052125E+00 -2.196264554907E+01  1.455126324194E+00      217
 O   1.335781642531E+01  4.080437324763E+00  1.299725554284E+01  0.000000000000E+00  3.776182646629E+00  2.491878696756E+00  2.461802418335E+01  1.299734080791E+01  2.530096039976E+01  1.484338052668E+00      218
 O   1.286705370897E+01  2.029536585098E+00  1.425815167731E+01  0.000000000000E+00  6.508629174369E+00 -7.320390414643E+00  1.734718759248E+01 -1.760429949940E+01  1.565470753177E+01  6.831868830686E+00      219
 O   1.161462169918E+01  6.779920297802E+00  1.666495855411E+01  0.000000000000E+00  1.529154607071E+01  2.214265576828E+01  3.325042060754E-01  5.442636851880E+01  2.317383841317E-01  8.926288455605E+00      220
 O   9.674139541483E+00  5.039570077322E+00  1.597770360085E+01  0.000000000000E+00 -3.788375408064E+01  6.919874137720E+00 -3.070911284398E+01  2.193911310514E+01 -1.859367592925E+01 -1.973486454922E+01      222
 O   1.065716690902E+01  6.405771350368E+00  1.361216976960E+01  0.000000000000E+00 -9.939496599332E+00  2.271288820137E+00  1.551086491390E+01  4.826455289217E+00  1.214368312243E+01 -5.974396675646E+00      223
 O   2.139060884578E+01  1.988579311246E+01  1.327950056205E+01  0.000000000000E+00 -2.758635175637E+01  2.237583898815E+01 -1.672012420499E+01  1.494232413759E+01 -2.693276264801E+01 -2.564566944821E+01      224
 Ca  1.552958218619E+01  7.193101396669E+00  6.086131443841E+00  0.000000000000E+00 -1.790809007570E+00  4.199041607665E+00 -2.305941197133E+00  3.552837330257E+00 -5.883918819011E+00 -8.294795454947E-01      225
 Ca  1.641472773432E+01  4.328152376993E+00  1.595603090709E+01  0.000000000000E+00 -1.995440587661E+00 -1.156195413894E+00 -2.373353669085E+00 -4.262393777262E+00 -2.441581776955E+00 -5.261476804501E-01      226
 Si  2.130566944888E+01  2.406711795772E+00  1.982659186393E+01  0.000000000000E+00 -3.865651420870E+01  1.697577824210E+00 -1.393769648695E+01  2.589368402934E+01 -1.497745836843E+01 -9.039492316786E-01      228
 Si  2.269665961552E+01  4.828891213506E+00  2.107145839863E+01  0.000000000000E+00 -1.177175818961E+01 -1.391967908953E+01 -4.401461507321E+01 -6.074043828992E+01 -4.740937800916E+01 -2.504538100030E+00      229
 O   2.249882430764E+01  1.598986119668E+00  2.042253778510E+01  0.000000000000E+00  1.485743373346E+01  3.144016778088E+01  2.804561029333E+01  8.289836916365E-01  3.089690738877E+01  1.177113897708E-01      230
 O   2.139196481050E+01  4.043397358086E+00  2.008597308254E+01  0.000000000000E+00 -4.807009109468E+00 -8.028696737100E+00  2.135612300945E+01 -4.016786482093E+01  2.274469999683E+01 -8.941989221108E-01      236
 O   2.264997940955E+01  4.088114073718E+00  2.250494070498E+01  0.000000000000E+00  1.537254148515E+01 -3.381401142285E+00  5.321081097715E+01 -1.421142831876E+01  5.355374132274E+01  2.810629661854E+00      237
 H   1.486815879829E+01  1.774489502373E+01  5.534483414728E+00  0.000000000000E+00 -2.507995770116E+00 -6.561319185401E+00 -6.758653027910E-01 -2.046420233075E+00 -1.815683939247E+00 -2.993250359001E+00      243
 H   1.874630590158E+01  1.683464721665E+01  5.772295649263E+00  0.000000000000E+00  6.112219321519E+00 -9.283781520109E-01  1.804293791383E+00 -3.183240550727E-01  5.859686579620E+00  5.488924406164E+00      247
 H   1.271205591554E+01  7.264298511449E+00  5.606591915662E+00  0.000000000000E+00 -8.837220055890E+00 -1.528121317045E+01  1.294853619571E+01 -1.179405362926E+01  2.935874745661E+01 -5.050025340030E+00      248
 H   5.075564097547E+00  9.204619536093E+00  1.071339829521E+01  0.000000000000E+00  5.354997576653E+00 -1.197302423358E+01 -3.232356615858E+01 -1.393558711575E+01 -1.531356600198E+01  9.711376777532E+00      249