     8448
Lattice="     49.70      0.00      0.00      0.00     49.70      0.00      0.00      0.00     49.70" pbc="T T T" config_type=md Properties=species:S:1:pos:R:3:charge:R:1:forces:R:3:id:I:1
 Si  1.069468896963E+01  1.751934943016E+01  1.566704428165E+01  0.000000000000E+00 -8.980670552347E+00  2.123538773751E+01  1.783767285376E+01  1.899018918184E+01  1.217641053944E+01 -1.471155505041E+01        1
 Si  1.227069457147E+01  2.011644709147E+01  1.686847451630E+01  0.000000000000E+00 -1.499409463215E+01  8.160689201282E+01 -5.878843507422E+00  6.843076076076E+01 -4.276468096943E+00 -2.458116038951E+01        2
 Si  1.090466126043E+01  2.275664190815E+01  1.782606631558E+01  0.000000000000E+00 -8.422864262551E+00 -6.280222628607E+00 -6.351350470659E+01 -4.919516047490E+00 -3.885283730166E+01 -1.757744704638E+01        3
 O   1.132299559105E+01  1.902311163501E+01  1.626616238389E+01  0.000000000000E+00 -1.345042523743E+01 -1.797812276125E-01  1.167510903679E+01 -1.537261988485E-01  8.127129499183E+00 -2.259728344611E+01        4
 O   9.293262312423E+00  1.790634156405E+01  1.503658068324E+01  0.000000000000E+00 -9.307677568113E+00  4.893059098832E+00  1.694801675043E+00  4.108872695423E+00  1.047461312216E+00 -1.793411700861E+01        5
 O   1.170011777342E+01  1.728998015362E+01  1.449541938206E+01  0.000000000000E+00  1.523643545638E+01 -2.831228561446E+01 -2.244971227050E+01 -2.373620154564E+01 -1.812050211319E+01  2.251581323831E+01        6
 O   1.057230486396E+01  1.634822416421E+01  1.682169130218E+01  0.000000000000E+00  1.896425131887E+01  2.299477675600E+00 -3.946654661743E+01  2.366073723157E+00 -2.480442395903E+01  2.932490461223E+01        7
 O   1.270119093679E+01  2.145146952778E+01  1.584624234016E+01  0.000000000000E+00 -3.127809201420E+00 -1.038455676196E+01 -1.910204357945E+01 -7.671092315244E+00 -1.531080350642E+01 -5.282662398110E+00        8
 O   1.362710504217E+01  1.955360102621E+01  1.747783688234E+01  0.000000000000E+00  1.125515344550E+01 -1.925153517098E+01  1.950579407480E+00 -1.720783762550E+01  1.520826098662E+00  1.615007584378E+01        9
 O   1.158063829070E+01  2.132908059108E+01  1.797323683105E+01  0.000000000000E+00  1.003762963505E+01 -4.542760706413E+01  1.053061168751E+01 -3.828018450888E+01  6.785155399619E+00  1.848718577123E+01       11
 O   1.908235815873E+01  1.792556532454E+01  2.087956593279E+01  0.000000000000E+00 -1.497766462218E+01  4.391744357944E-01  1.270819035043E+01  5.115471351752E-01  1.161433339164E+01 -1.406970267306E+01       13
 Ca  2.088094043543E+00  1.637577674521E+01  1.766974155877E+01  0.000000000000E+00 -9.931460033049E+00  1.794248869339E+01 -2.524315646835E+01  1.936025039093E+01 -1.150415353156E+00 -1.371687902628E+01       14
 Ca  2.091442198125E+01  1.377542939721E+01  1.866607630647E+01  0.000000000000E+00 -7.546154653632E+00  1.040401010001E+01  2.526002555186E+00  1.409771273333E+01  2.830261834221E+00 -4.970327209844E+00       15
 O   6.490234947208E+00  3.810231712722E+00  1.547378906649E+01  0.000000000000E+00  4.333856267494E+01  1.711392551706E+00  1.145045020759E+01  8.793435746605E+00  4.802709393234E+00  2.528132200139E+01       16
 O   9.350405050268E+00  1.582784747023E+01  1.953368354197E+01  0.000000000000E+00 -1.279579963883E+01  1.705351106521E+01  5.569873680230E+00  2.104631656667E+01  2.666193238826E+00 -2.166002048619E+01       18
 Si  2.021292430942E+01  2.004430410866E+01  1.808954278210E+01  0.000000000000E+00 -5.043635212371E+01  1.941934372775E+01 -7.285776687939E+01  1.752552980932E+01 -8.140993639395E+01 -5.001560212779E+01       19
 Si  1.772022241858E+01  2.137406332062E+01  1.849590988875E+01  0.000000000000E+00 -4.933329157487E+01 -1.595009962128E+01 -8.747386509267E+00 -1.380231736411E+01 -8.380535775629E+00 -5.950562431033E+01       20
 O   1.847554120577E+01  1.994389194253E+01  1.846966773262E+01  0.000000000000E+00  2.332499943819E+01  1.421854586098E+01  5.729696160322E+00  1.316753111429E+01  5.731518240560E+00  2.517876273142E+01       22
 O   2.117891623719E+01  2.131086638311E+01  1.798694619857E+01  0.000000000000E+00 -9.433266966317E+00  3.367324939762E+00  2.523686361672E+00  2.842113100227E+00  2.971540664699E+00 -9.492038668265E+00       23
 O   2.023141841812E+01  1.933854773297E+01  1.657915891709E+01  0.000000000000E+00 -2.483716506774E+00  1.619074252254E+01  5.970701121898E+00  1.388050938330E+01  7.286000046849E+00 -2.374102953573E+00       24
 O   2.068280597551E+01  1.909887653959E+01  1.916018123178E+01  0.000000000000E+00  4.611832322566E+01 -1.028580551480E+02  9.784949910632E+01 -1.031882149559E+02  1.056254207794E+02  4.258649249734E+01       25
 O   1.825603164163E+01  2.244540730590E+01  1.959476012380E+01  0.000000000000E+00  7.977808482641E+00  5.872504848657E+00  3.027207638323E+01  5.126675683227E+00  2.820386576914E+01  9.808547898931E+00       26
 O   2.166209059784E+01  1.751181070298E+01  2.112323826925E+01  0.000000000000E+00  5.733285865481E+01 -1.715294030511E+00  5.277147844028E+01 -2.069035870867E+00  5.411767515871E+01  4.634835051072E+01       27
 O   1.815539717491E+01  2.197531055126E+01  1.699224120263E+01  0.000000000000E+00 -3.696345785606E+00  3.325414814359E+01 -1.373656074792E+01  2.571351630849E+01 -1.467685829208E+01 -4.474060565074E+00       29
 Ca  4.467588993265E+00  1.049901361111E+01  1.414850993240E+01  0.000000000000E+00 -4.964215201806E-01  6.243724500380E+00  1.465398573332E+01  8.414066442902E+00  4.651342480417E+00  1.113288191070E+00       32
 Si  1.350521366136E+01  1.981039529112E+01  1.232014829715E+01  0.000000000000E+00 -1.981990848844E+01  1.330228777284E+01  6.221902476115E+00  8.272735381821E+00  6.820382376363E+00 -2.907323287399E+01       37
 Si  1.241193963162E+01  2.218760076869E+01  1.435066519102E+01  0.000000000000E+00  6.940103002253E+01  2.489848604486E+01  5.018219043542E+00  1.610403218979E+01  4.340274893016E+00  1.240613790252E+02       38
 O   1.310372807885E+01  2.134533370845E+01  1.303918380423E+01  0.000000000000E+00  8.198895854023E-01  1.052341448278E+01  5.501758767437E-01  6.428418387046E+00  5.528992606160E-01  1.335560132138E+00       40
 O   1.337509177706E+01  1.884626143117E+01  1.355401750860E+01  0.000000000000E+00 -7.625583998581E+00 -4.770728624036E+01  2.177762694939E+01 -3.431053927333E+01  2.149014186752E+01 -1.074487951171E+01       41
 O   1.500008622888E+01  1.984586399708E+01  1.180137055075E+01  0.000000000000E+00  1.120079042066E+01  1.584687629674E+01 -1.081550278315E+01  9.423366968412E+00 -1.374700282974E+01  1.481920570031E+01       42
 O   1.221423074022E+01  1.938251243658E+01  1.140243034060E+01  0.000000000000E+00  1.393350809850E+01  6.674037364452E+00 -4.430159256538E+00  3.926232287364E+00 -4.745566143264E+00  2.211079844063E+01       43
 O   1.310914106347E+01  2.376461226070E+01  1.417216185198E+01  0.000000000000E+00 -1.663917342143E+01 -6.261212391219E+01  1.403059030760E+01 -3.733909664695E+01  1.297818847026E+01 -3.016395222116E+01       44
 O   1.090629383593E+01  2.223450906455E+01  1.393662742579E+01  0.000000000000E+00 -2.996619149399E+01  1.201191214000E+01 -5.392462505422E+00  7.529086595994E+00 -4.219943519087E+00 -6.109165647162E+01       46
 O   8.465608589551E+00  2.149867755072E+01  1.421529526976E+01  0.000000000000E+00  3.012268135580E+00  3.528123090522E+01  1.454885052363E+01  2.332855654098E+01  8.664250135060E+00  7.649749059160E+00       47
 O   1.690622531353E+01  1.559130400879E+01  1.032144912880E+01  0.000000000000E+00  1.071077661106E+01  3.660492181999E+00 -4.541577243898E+00  2.423247203799E+00 -7.438967843174E+00  9.877720852305E+00       48
 Ca  6.693456940679E+00  2.135089749444E+01  1.275763704189E+01  0.000000000000E+00 -1.998143973412E+00 -1.284797783850E+01  7.063075135427E+00 -7.676953066191E+00  3.705732427762E+00 -6.373712049474E+00       49
 Si  2.017383266330E+01  2.063008434647E+01  2.313756073409E+01  0.000000000000E+00 -4.152271965010E+01  1.440599716571E+01  2.948340701125E+01  1.615696905349E+01  2.570682909166E+01 -4.246179806153E+01       51
 Si  1.918150496796E+01  2.261064817977E+01  2.105584966037E+01  0.000000000000E+00  4.377283838718E+01  3.923678732309E+01 -3.957179532421E+01  3.653870903930E+01 -3.604920251835E+01  5.159825833561E+01       52
 O   1.912020137607E+01  2.124449705707E+01  2.188774131456E+01  0.000000000000E+00 -5.508403764383E+00 -8.526082906030E+00  3.251949908788E+01 -8.784236998992E+00  2.840765350217E+01 -6.120399323202E+00       54
 O   1.964108323845E+01  1.913997876662E+01  2.351969325624E+01  0.000000000000E+00 -3.811784465991E+00 -1.739804750587E+01  2.886499448400E+00 -2.137916376945E+01  2.410489597636E+00 -3.714534114860E+00       55
 O   2.148586140000E+01  2.061465016641E+01  2.235107337626E+01  0.000000000000E+00  7.963388164182E+01 -3.526906218483E+00 -1.587239051843E+01 -3.823986293445E+00 -1.525796891383E+01  7.640487764850E+01       56
 O   2.023644518669E+01  2.128188427340E+01  2.470990305028E+01  0.000000000000E+00  2.655941829044E+01 -1.138308524114E+01 -6.489721268532E+01 -1.321663669947E+01 -5.314828166679E+01  2.793150976920E+01       57
 O   1.603523732926E+01  2.106019690716E+01  1.858989805119E+01  0.000000000000E+00  6.519458954754E+01  3.209926038233E+00  1.317365652024E+01  2.833411200555E+00  1.136330646970E+01  8.562460691787E+01       58
 O   1.430177041886E+01  1.151026396564E+01  1.146655049547E+01  0.000000000000E+00  1.401449922794E+01  3.079375910467E+01 -6.660757357063E+00  3.067681112901E+01 -8.307696597516E+00  1.127906411133E+01       59
 H   3.154031020691E+00  6.723639677654E+00  1.630422629365E+01  0.000000000000E+00  8.137318255241E+00 -2.361095265440E+00 -2.873869377185E+01 -5.725445347189E+00 -5.368423576326E+00  1.602103378097E+01       70
 H   1.385948178766E+01  1.883764987457E+01  1.683492877940E+01  0.000000000000E+00  9.223489055263E+00  3.260819548913E+00  1.138486510532E+01  2.914146150605E+00  9.372675860390E+00  1.253646132713E+01       73
 H   1.615231225289E+01  1.365025999205E+01  1.521851037083E+01  0.000000000000E+00 -1.178508247422E+01  3.686644890783E+01 -3.403996870399E+01  4.110195962322E+01 -3.612864795488E+01 -9.959530083502E+00       83
 Si  2.279258919700E+00  2.073281875085E+01  2.140170591263E+01  0.000000000000E+00 -4.140727526593E+00  3.215852943587E+01 -1.892688488458E+01  3.319603561098E+01 -2.558099571120E+00 -6.884115760818E+01       89
 Si  2.386269628634E+00  2.085210555890E+01  1.819243085912E+01  0.000000000000E+00 -4.041680690515E+00  3.932878795974E+00  1.530383381232E+00  3.431242248939E+00 -4.936585140314E-01 -3.158391612202E+01       90
 O   1.569461150531E+00  2.095402885890E+01  1.973078830706E+01  0.000000000000E+00  3.379023093259E+01 -2.107099739504E+01 -2.141588361505E+01 -1.984092853073E+01 -5.446975028504E+00  2.792184029066E+01       92
 O   2.198435247424E+00  1.932758990498E+01  2.216267376433E+01  0.000000000000E+00  2.249365066699E-01  1.071654178953E+00 -7.756936036305E+00  1.228850677869E+00 -4.314728832817E-01 -5.452817594476E-01       95
 O   1.419246357188E+00  2.000098346749E+01  1.708281644865E+01  0.000000000000E+00  8.438188769578E+00 -5.979370188234E+00  1.438808311369E+01 -5.106973043108E+00 -1.866904444056E-02  1.664289680642E+01       96
 O   3.883534360733E+00  2.035792378472E+01  1.833108032520E+01  0.000000000000E+00  2.355504057092E+00 -7.873673742904E+00  7.595210827853E+00 -7.089767471470E+00  1.415015440365E+00  9.960761834959E+00       97
 O   1.140473108720E+01  1.536935805155E+01  2.089246435010E+01  0.000000000000E+00  4.283968895721E+00  3.000197112917E+00 -2.649111942390E+01  4.078342830889E+00 -1.446091222968E+01  5.773205114315E+00       98
 O   3.714810321326E+00  1.201460871710E+01  2.020317105039E+01  0.000000000000E+00 -1.835620318938E+00  9.215656112750E+00 -4.167089853634E+00  1.549659095618E+01 -8.196024331542E-01 -5.154748393464E+00      101
 Ca  2.195939785093E+01  2.332250182209E+01  1.853759427338E+01  0.000000000000E+00 -8.228972758217E+00  1.876032811548E+01 -2.404300672747E+00  1.491140846266E+01 -2.848103925866E+00 -8.739776630044E+00      102
 O   1.678871715296E+01  3.731068628396E+00  1.058415553972E+01  0.000000000000E+00 -4.357404301277E-01  1.700350464061E+00  8.600676908130E+00  4.855078298583E+00  1.364249905367E+01 -1.028861580559E-01      105
 Si  5.217258644417E+00  1.601680691923E+01  1.938001436108E+01  0.000000000000E+00 -6.472647947314E+00 -1.436261388728E+01  2.967536513651E+01 -1.737847404927E+01  7.988851421889E+00 -1.987080946030E+01      107
 Si  8.021300984470E+00  1.675922512744E+01  2.011204863147E+01  0.000000000000E+00  7.799413054852E+00 -3.310427087260E+01  4.327019725888E-01 -3.972705782256E+01  1.725747994303E-01  1.629562579702E+01      108
 Si  7.776949831713E+00  1.997890415089E+01  1.962346062788E+01  0.000000000000E+00 -1.663673600350E+00  2.843824889080E+01 -7.339120518210E-01  2.793230565699E+01 -2.908557932841E-01 -4.273960372514E+00      109
 O   6.839308390536E+00  1.608959986850E+01  1.913790555837E+01  0.000000000000E+00 -1.528470558017E+00  1.053799792184E+01 -4.641417910051E+00  1.253450742409E+01 -1.658702325570E+00 -3.595755343232E+00      110
 O   4.001119919464E+00  1.650485547660E+01  1.841721638457E+01  0.000000000000E+00  1.210102195503E+01  1.818536880317E+01  6.437074617313E+00  2.029244501753E+01  1.395329762859E+00  4.938148287014E+01      111
 O   5.039655872663E+00  1.670061094025E+01  2.086897201488E+01  0.000000000000E+00 -1.043048220259E+00  7.009806288288E-01 -7.987739070595E+00  8.759407172795E-01 -1.928962101617E+00 -3.456494442994E+00      112
 O   4.856273908681E+00  1.434501294028E+01  1.949461581354E+01  0.000000000000E+00 -7.336998158710E-02 -3.941685536784E-03  1.969184854204E+01 -5.356680089261E-03  4.905406251810E+00 -2.167285773181E-01      113
 O   7.789956285769E+00  1.645825965249E+01  2.176495310033E+01  0.000000000000E+00  5.836297362360E+00 -1.110165903478E+01 -8.439374829678E+00 -1.468120526287E+01 -3.020560655443E+00  1.233065936125E+01      114
 O   1.127467038612E+01  1.382985799398E+01  3.538474479070E+01  0.000000000000E+00 -1.449326004935E+01  9.617827297430E+00 -2.291372847875E+01  2.460794351675E+01 -7.301020183786E+00 -1.777787921845E+01      115
 O   8.057205409343E+00  1.836196186611E+01  1.989964518814E+01  0.000000000000E+00  5.753144228740E+00  1.370258401065E+00  1.555128057058E+01  1.485007767476E+00  6.296587740677E+00  1.311112346917E+01      117
 O   6.479197895143E+00  2.053405648976E+01  2.047274190670E+01  0.000000000000E+00  2.886562640081E+00 -1.320070127321E+01 -1.846439268932E+01 -1.316128404968E+01 -5.843597051775E+00  9.148175634067E+00      118
 O   6.409599044541E+00  9.980298850029E+00  2.206764111815E+01  0.000000000000E+00  4.640259591761E+00 -8.065514798655E-01 -3.180725729128E+01 -1.783382328369E+00 -9.238493813277E+00  7.225284631015E+00      119
 Ca  2.361148159895E+01  1.869568576745E+01  2.065359554701E+01  0.000000000000E+00  6.375359941847E+00  2.355167523652E+00  6.472407830324E+00  2.601812957493E+00  7.399347878131E+00  5.048040955316E+00      120
 Ca  3.012181548046E+00  1.213088405989E+01  1.817333238359E+01  0.000000000000E+00 -6.489618668856E+00  6.387877971836E+00 -1.496755001381E+01  9.569708937521E+00  5.496881373852E-01  2.505893343969E-01      121
 Si  1.280150124778E+00  1.714565219299E+01  1.429695795851E+01  0.000000000000E+00 -2.247781900931E+02 -1.126749784036E+01 -1.305511480087E+01 -9.395439794767E+00 -1.389092310871E+02 -1.509317123496E+01      125
 Si  2.266719791486E+00  1.937478182171E+01  1.579032139877E+01  0.000000000000E+00 -8.476987428537E-01  1.562923256920E+01 -2.110578296458E-01  1.273772307501E+01 -1.926161586462E+00  9.691059507489E+00      126
 Si  3.051518949844E+00  2.111132010656E+01  1.299831168695E+01  0.000000000000E+00  2.804575263467E+00 -3.674203443741E+01  2.501410872717E+01 -2.262219573288E+01  5.677823079778E+00  1.154508053609E+01      127
 O   1.066388702825E+00  1.849605495781E+01  1.516860913348E+01  0.000000000000E+00  3.145707310912E+01 -1.407895579648E+01  9.431492251501E+00 -1.154614743368E+01  4.112265825833E+01 -1.414303464594E+01      128
 O   2.559698554782E+00  1.711483641453E+01  1.336490196364E+01  0.000000000000E+00  3.646326223643E+01  5.326435866862E-02 -1.096243879081E+01  4.159390802928E-02 -1.175904717673E+00  3.210166919416E+01      129
 O   1.118499448463E+00  1.574631561769E+01  1.511155661468E+01  0.000000000000E+00  1.685236814119E+01 -2.321298916944E+00  2.762703671184E+01 -2.227723669121E+00  2.354249985085E+01 -3.821161689576E+00      131
 O   3.393464859507E+00  1.824187029345E+01  1.639466518326E+01  0.000000000000E+00 -7.255225706431E+00  2.894043495722E+01 -3.945315920698E+01  2.600987364502E+01 -8.657272978444E+00 -3.696688846988E+01      132
 O   3.116939188224E+00  4.609080483576E+00  9.308416079490E+00  0.000000000000E+00  2.068079894460E+00 -1.575890885448E+01 -3.211056631233E+01 -3.182640899827E+01 -1.139391712511E+01 -1.412813193326E-01      133
 O   2.302405935447E+00  2.055131790268E+01  1.452308085099E+01  0.000000000000E+00  6.009778993063E+00 -1.755453923705E+00 -9.550888837228E+00 -1.240533545580E+00 -1.199005449757E+00  3.127140318483E+01      134
 O   2.355861791368E+00  2.091704269482E+01  1.156271093971E+01  0.000000000000E+00 -3.473170419671E-03  4.512758629719E+00  1.801289304391E+00  2.494603292513E+00  1.008440933637E+00 -4.037668208443E+01      135
 O   8.177569387616E+00  1.452791003490E+01  1.287833409796E+01  0.000000000000E+00 -1.297355143254E+00  5.184958797541E+00  1.627633440811E+01  4.596231083375E+00  1.033525399993E+01 -2.304824075604E+00      136
 Si  8.708818367677E+00  1.458399334328E+01  2.549017096655E+01  0.000000000000E+00 -1.294335813023E-01 -1.196721338019E+01  2.431563875649E+01 -2.091651496774E+01  8.307534763193E+00 -2.167525384518E-01      139
 Si  8.613458774317E+00  1.671267120101E+01  2.319139070377E+01  0.000000000000E+00 -2.402569276003E+01  3.943589747189E+01 -2.540850445073E+00  5.472334703559E+01 -9.436911671183E-01 -4.661698790179E+01      140
 O   8.313572504182E+00  1.592713084724E+01  2.461563968888E+01  0.000000000000E+00 -2.616461700931E+00 -1.390074020880E+01 -1.406139272638E+01 -2.148382000942E+01 -4.749029861424E+00 -5.012613752577E+00      142
 O   7.404433731116E+00  1.355955295597E+01  2.563056319518E+01  0.000000000000E+00  8.878744884640E-01 -1.123636437321E+01 -1.285113062021E+01 -2.123922138780E+01 -3.712573318138E+00  1.625942182991E+00      143
 O   7.874915015289E+00  1.830593605995E+01  2.353219522288E+01  0.000000000000E+00  7.208933995577E+00 -1.968842288027E+01  1.138785368698E+01 -2.530937556713E+01  3.810880334034E+00  1.675780430992E+01      148
 O   1.266011797680E+01  1.611356566276E+01  1.499655523117E+00  0.000000000000E+00  1.618642819145E+00 -2.145750972048E+01  8.381708448946E+01  5.809071400363E+00  3.127426628327E+01  2.060178854467E+00      150
 Ca  4.228015029251E+00  1.168450416662E+01  7.402927321060E+00  0.000000000000E+00  1.120924686985E+00 -2.791547255421E+00 -5.238427802356E+00 -1.768634864646E+00 -1.909564249577E+00  1.039032535573E+01      151
 Ca  1.286559096508E+01  2.215399447936E+01  1.824516266757E+00  0.000000000000E+00  1.753585161132E+01 -1.324207678087E+01 -1.281237991264E+01 -4.711403072388E+00 -6.353441566737E-01  3.019598251200E+01      152
 H   7.387525897722E+00  1.780099406521E+01  1.529053524891E+01  0.000000000000E+00  6.283584735645E+00 -2.387868045541E+00 -1.020354165098E+00 -2.051109077749E+00 -4.929776948157E-01  1.514093569837E+01      155
 H   1.038637683155E+01  1.336278797728E+01  3.536579019427E+01  0.000000000000E+00  9.325188427401E+00  4.854612802656E+00  1.568034908314E+01  1.284815849394E+01  4.605072120066E+00  1.199749612638E+01      156
 H   1.373729476952E+01  1.180432299015E+01  1.071940154584E+01  0.000000000000E+00  5.865553651643E+00 -5.087043979830E+00  7.561700868930E+00 -4.619499749933E+00  9.690588914986E+00  5.040212864452E+00      159
 H   1.613890022357E+01  3.026070570841E+00  1.048638478259E+01  0.000000000000E+00 -5.918888451545E+00 -2.783430165968E+00 -6.648668908415E+00 -1.034940228030E+01 -1.023252592357E+01 -1.028661906522E+00      160
 H   1.609981364001E+01  1.579708448584E+01  1.445216088532E+01  0.000000000000E+00  5.987192856102E+00 -1.131226736370E+01  3.545639594414E+01 -1.034916968789E+01  3.949868615336E+01  5.874614048064E+00      164
 H   1.905998390241E+01  6.147321144147E+00  6.156882137016E+00  0.000000000000E+00 -3.293251295797E+01  1.227284755451E+00 -2.637260068716E+01  1.229193564267E+00 -8.164219053990E+01 -1.062155845844E+01      168
 H   7.180075682226E+00  2.057219856055E+01  3.257968035016E+01  0.000000000000E+00 -8.698750829869E+00  1.200743769077E+01 -1.889410027815E+01  1.901588109984E+01 -4.163977930006E+00 -2.492347396056E+01      169
 Si  1.211081164087E+01  6.015736941176E-01  1.983104957008E+01  0.000000000000E+00  2.739669259499E+01 -1.533627151929E+02 -8.181521175721E+00  9.126146408800E+00 -4.996450719605E+00 -1.007015149270E+02      177
 Si  1.091985322937E+01  3.248930965178E+00  1.876670498614E+01  0.000000000000E+00  1.125077236449E+01 -1.074567774694E+00 -1.273110832730E+01 -8.661062965377E+00 -7.407897895977E+00  3.242396613911E+00      178
 Si  8.291515037925E+00  4.052017815527E+00  1.991322381683E+01  0.000000000000E+00 -4.779227635772E+01  4.773907243296E+00  4.566923536094E+01  2.346087498734E+01  1.901586379226E+01 -2.335582271277E+01      179
 O   1.150612087867E+01  1.743851936551E+00  1.878186245616E+01  0.000000000000E+00  4.794052600709E+00  3.827179320945E+00  4.701985921708E+00 -1.227508167970E+01  2.880524682323E+00  1.906460333245E+00      180
 O   1.193237088848E+01  1.235993743830E+00  2.134306055402E+01  0.000000000000E+00  9.784128354575E+00 -7.463335495592E+00 -1.546214034180E+01 -4.538906210024E+00 -8.644495611159E+00 -2.867330311401E-01      182
 O   1.084684542282E+01  3.686956334929E+00  1.722978943016E+01  0.000000000000E+00  7.864971128630E-01  1.592017203058E+00 -5.424116749994E+01  7.571569069844E+00 -3.414699650337E+01  2.395117008195E-01      184
 O   1.180358931788E+01  4.416726832686E+00  1.930009477015E+01  0.000000000000E+00  1.573934738125E+01  2.830198545570E+00  5.186718873273E+01  1.236350138777E+01  3.172103568221E+01  5.889521091237E+00      185
 O   9.412026593854E+00  3.282671706620E+00  1.928564673209E+01  0.000000000000E+00  3.370647541393E+01 -1.088203184321E+01 -2.644201643668E+01 -6.222844488491E+01 -1.290456915210E+01  1.179490153997E+01      187
 O   6.997425068369E+00  3.689481026145E+00  1.901169034097E+01  0.000000000000E+00 -5.039319075671E+00  2.130177802934E-01 -1.059520995398E+01  1.097668763536E+00 -3.899663123422E+00 -2.657044831880E+00      188
 Ca  1.154821946601E+01  3.905736568366E+00  2.193212947617E+01  0.000000000000E+00 -5.092883688959E+00 -1.304094146637E+00 -9.313926158792E+00 -7.322962307497E+00 -4.904186959539E+00 -1.722470041459E+00      190
 O   1.592876418895E+01  1.925160630669E+01  7.386983196612E+00  0.000000000000E+00 -1.327205864175E+00 -5.841482943167E+01 -8.032406214371E+00 -2.241420048647E+01 -1.732050839337E+01 -1.604069498546E+00      193
 O   4.279964319076E+00  1.205078492925E+01  1.248200510420E+01  0.000000000000E+00 -2.173822923822E+00  1.186364171370E+00  3.961028759311E+00  1.228816523522E+00  1.159870755755E+00 -4.852543289735E+00      194
 Si  1.829843219570E+01  1.661570455828E+00  1.985314780356E+01  0.000000000000E+00 -6.791981451471E+01  1.546261300437E+00 -4.073988140841E+00 -3.571078700707E+00 -3.754950927626E+00 -7.748550725603E+00      196
 Si  1.652882951207E+01  4.234733716095E+00  1.947566433648E+01  0.000000000000E+00  7.063678779773E+01 -1.140959936701E+01 -3.326453576338E+01 -5.247308151659E+01 -2.823132658952E+01  1.809734843385E+01      197
 O   1.970631180058E+01  1.543294840858E+00  2.062059149401E+01  0.000000000000E+00  7.432711333523E+00  2.122366604133E+00 -4.753818272034E+00 -1.812101516641E+01 -4.543042576602E+00 -1.585441734787E+00      202
 O   1.779484955454E+01  3.259871092875E+00  2.005488291146E+01  0.000000000000E+00  3.234819215495E+00 -3.547734246879E+00 -1.800358812592E+00 -2.128805361084E+01 -1.597472014955E+00  6.461368726421E-01      205
 O   1.571709678694E+01  5.161464766622E+00  2.035861467415E+01  0.000000000000E+00 -3.316457521806E+01  1.173455059086E+01  3.088180913348E+01  4.628515443881E+01  2.384113019846E+01 -1.089118358234E+01      206
 Ca  1.440228164368E+01  5.351346862528E+00  1.838048294052E+01  0.000000000000E+00 -1.445097595768E+01  2.296628987686E+00 -1.232818565681E+00  7.888322512684E+00 -9.659920392711E-01 -5.369439840494E+00      209
 O   2.246851016662E+01  1.877580396664E+01  1.497168952444E+01  0.000000000000E+00  3.804122760611E+01  5.862016107960E+01 -6.313555338294E+00  4.674329009376E+01 -9.474961531523E+00  3.178914075237E+01      210
 O   1.374904086536E+01  1.713593532424E+01  4.344317405949E+00  0.000000000000E+00  3.241148775774E+01  1.623650033497E+01  5.521526759621E+00  4.168929392866E+00  1.689159905956E+01  4.039562929648E+01      212
 Si  1.425531707587E+01  4.039124418758E+00  1.513534064722E+01  0.000000000000E+00 -2.391092561421E+01 -8.306613278056E+00 -5.256219528379E+00 -3.112640477332E+01 -4.950603871028E+00 -6.774960038380E+00      213
 Si  1.148867919572E+01  4.829017431870E+00  1.626717836326E+01  0.000000000000E+00 -6.299166427734E+00  6.557323459691E+00 -1.159235478353E+01  2.208920382031E+01 -8.187089503592E+00 -2.647718155200E+00      214
 Si  9.908212449431E+00  6.378851685371E+00  1.408285513517E+01  0.000000000000E+00 -1.171638803734E+01 -7.990926479111E+00  2.276343979087E+01 -1.764189944394E+01  1.601557321743E+01 -7.542945002429E+00      215
 O   1.255233217790E+01  4.466847286908E+00  1.503056771972E+01  0.000000000000E+00  9.959332957574E+00 -3.935293712182E+00  1.307313942962E+01 -1.324193437535E+01  1.091764408295E+01  3.544107881345E+00      216
 O   1.505308360536E+01  3.838060000570E+00  1.650422722357E+01  0.000000000000E+00  1.371476474887E-01  7.020968454013E+00  2.237142584996E+01  2.978540665315E+01  2.040440543680E+01  7.007698638832E-02      217
 O   1.487455075396E+01  5.170138129263E+00  1.420054782783E+01  0.000000000000E+00  1.119254528669E+01 -7.806909758538E-01 -6.377252981177E+00 -2.144283047028E+00 -6.679937583352E+00  3.890336327290E+00      218
 O   1.435518269798E+01  2.367449732314E+00  1.494489715203E+01  0.000000000000E+00 -1.156918185195E+01  1.047434826048E+00 -4.370179852378E+01 -1.020357544063E+01 -4.197735826868E+01 -1.576420873677E+00      219
 O   1.241232822232E+01  5.966723277480E+00  1.722824874090E+01  0.000000000000E+00 -9.037354795074E+00 -3.227919813846E+00 -2.633793483645E+01 -9.320258856063E+00 -1.897552657875E+01 -4.344341710658E+00      220
 O   1.022733528580E+01  5.614272460095E+00  1.551087271823E+01  0.000000000000E+00  1.987365421594E+01 -9.811860384460E+00  2.056212673600E+01 -2.710778976869E+01  1.355795822313E+01  1.090959731231E+01      222
 O   1.120680730349E+01  6.879412416094E+00  1.339569362942E+01  0.000000000000E+00  3.796408896072E+00  4.863006615391E+00 -4.505762435636E+00  9.469318423944E+00 -3.769510767294E+00  2.330464135675E+00      223
 O   2.131294436062E+01  2.144272323259E+01  1.295812984846E+01  0.000000000000E+00  2.555047231951E+01 -3.203775145946E+01  1.754916889389E+01 -1.936084978392E+01  2.886407719205E+01  2.570605436486E+01      224
 Ca  1.548456649650E+01  7.839518289533E+00  5.859914297639E+00  0.000000000000E+00  2.256917347060E+00 -8.615308937833E+00  3.635516744456E+00 -6.439805375643E+00  9.606693531565E+00  1.142630943155E+00      225
 Ca  1.696438149557E+01  4.824082470543E+00  1.558126384610E+01  0.000000000000E+00  6.069020095222E+00 -3.849316941222E+00 -6.893076031048E+00 -1.243287677080E+01 -7.504960613189E+00  1.725819091157E+00      226
 Si  2.118820206013E+01  2.155500008146E+00  2.036675288614E+01  0.000000000000E+00  1.615098198375E+01  1.402682981908E+01 -6.619011048193E+00  1.055764925503E+02 -6.885974623024E+00  3.317405225099E+00      228
 Si  2.262393365204E+01  4.725472751682E+00  2.156794835389E+01  0.000000000000E+00  1.276073648317E+01 -5.445835895664E+00 -2.176188769738E+01 -2.485582152593E+01 -2.282736843256E+01  2.665341645269E+00      229
 O   2.216891680522E+01  9.554991615348E-01  2.073721253930E+01  0.000000000000E+00 -1.305266178374E+01  2.711718492023E+01 -1.220995574423E+01  8.898357178817E+00 -1.305293527644E+01 -1.220317014165E+01      230
 O   2.119292538947E+01  3.533811363395E+00  2.146512991755E+01  0.000000000000E+00  4.782614968767E+01 -1.633973090340E+00 -1.196812017644E+01 -9.739778875562E+00 -1.181634953647E+01  7.980538218998E+00      236
 O   2.310860766087E+01  4.380244141248E+00  2.318376698666E+01  0.000000000000E+00 -6.057995183576E+00  9.740363637095E+00  2.565684085551E+01  5.133135960156E+01  2.557366408525E+01 -1.146106756580E+00      237
 H   1.354561770510E+01  1.677303143002E+01  3.490984852912E+00  0.000000000000E+00 -1.092685526211E+01 -1.029719048032E+01 -4.454414421090E+00 -2.108129742469E+00 -1.882042202330E+01 -1.353031590975E+01      243
 H   1.854640216808E+01  1.778824817764E+01  7.268776411491E+00  0.000000000000E+00  9.409938828238E+00 -2.757786549118E+00 -6.505551283620E-02 -1.126908822948E+00 -1.659902074307E-01  9.025272163092E+00      247
 H   1.288920740271E+01  7.599339394973E+00  7.797504970210E+00  0.000000000000E+00  1.282380110637E+01  3.769905963644E+00 -2.735254420383E-01  3.868212611767E+00 -4.521351593644E-01  7.560776539328E+00      248
 H   5.526007702007E+00  1.115649518838E+01  1.014637279360E+01  0.000000000000E+00  2.025768256715E+00 -8.567890468595E+00  1.996064046030E+00 -7.792143435835E+00  1.087114135903E+00  4.089837551370E+00      249