     8448
Lattice="     49.70      0.00      0.00      0.00     49.70      0.00      0.00      0.00     49.70" pbc="T T T" config_type=md Properties=species:S:1:pos:R:3:charge:R:1:forces:R:3:id:I:1
 Si  1.066382691965E+01  1.768888338172E+01  1.566610338254E+01  0.000000000000E+00 -1.641693355546E+01  9.029798811732E+00 -1.193297419633E+01  7.997212636631E+00 -8.122707246274E+00 -2.723198954147E+01        1
 Si  1.216480356275E+01  2.015784650813E+01  1.678141255657E+01  0.000000000000E+00 -8.104176946058E+00  1.472440969193E+00  8.436642794151E+00  1.225807496811E+00  6.115701045666E+00 -1.342913217716E+01        2
 Si  1.087909498778E+01  2.271845445464E+01  1.756098350287E+01  0.000000000000E+00 -3.147264832303E+01 -9.209734426272E+00 -5.697305495361E+00 -7.118969939107E+00 -3.529502071926E+00 -6.572329116502E+01        3
 O   1.097893160368E+01  1.933021301200E+01  1.598545041172E+01  0.000000000000E+00  1.501563718143E+00  1.305220197896E+01  5.005746428693E+00  1.079374176420E+01  3.437985558775E+00  2.643749644369E+00        4
 O   9.097940896929E+00  1.759157776416E+01  1.502430142445E+01  0.000000000000E+00  6.799883865854E+00  1.972597058682E+01  1.795473770340E+01  1.684720563213E+01  1.087246174251E+01  1.314810539754E+01        5
 O   1.153980214644E+01  1.711097593932E+01  1.445115271351E+01  0.000000000000E+00  1.693018019808E+01  3.932736403190E+00  8.354405559467E+00  3.321410452918E+00  6.671314677704E+00  2.510371515400E+01        6
 O   1.070314831460E+01  1.713989328246E+01  1.713706048551E+01  0.000000000000E+00  1.151414266854E+01 -1.757689823434E+01  3.551363635035E+00 -1.757399321136E+01  2.218045022190E+00  1.843860990963E+01        7
 O   1.275867225655E+01  2.123782073294E+01  1.569010666444E+01  0.000000000000E+00  7.897067832543E-01  5.995294828934E+00 -2.871365131622E+00  4.429212231029E+00 -2.334898508133E+00  1.314529502530E+00        8
 O   1.339282296606E+01  1.938209310311E+01  1.767912331296E+01  0.000000000000E+00 -1.358806812547E+01  2.949457027266E+01 -2.698600129239E+01  2.690308740854E+01 -2.044325001149E+01 -1.966465189352E+01        9
 O   1.164149636501E+01  2.129127812019E+01  1.797451686939E+01  0.000000000000E+00 -3.949302682577E-03  1.029694291197E+01 -1.334204072968E+01  8.692882269888E+00 -8.641195743117E+00 -7.222929008361E-03       11
 O   1.927140425916E+01  1.761299320285E+01  2.089902056014E+01  0.000000000000E+00 -1.399564929697E+01  1.347128771250E+01  4.111483119961E+01  1.598460384516E+01  3.791280700521E+01 -1.279124617086E+01       13
 Ca  2.215811450362E+00  1.640489137156E+01  1.719617318778E+01  0.000000000000E+00 -5.370243375666E+00  3.809739949667E+00 -1.652348592879E+01  3.993500870627E+00 -7.513916060735E-01  6.084950504933E+00       14
 Ca  2.058461261632E+01  1.457949617307E+01  1.864306752843E+01  0.000000000000E+00 -7.976880532857E+00 -3.103467988433E+01 -6.446875725409E+00 -3.968461090415E+01 -7.118272740833E+00 -5.649797806230E+00       15
 O   7.108226522919E+00  4.008888822545E+00  1.650641724688E+01  0.000000000000E+00 -7.521355540824E+00 -4.989818489736E-01 -1.671054130747E+01 -6.121892346964E+00 -7.196129308832E+00 -4.102841157756E+00       16
 O   9.506896451370E+00  1.697178316770E+01  1.931210425532E+01  0.000000000000E+00 -1.154395611268E+01 -3.665738851588E+00  1.844720201844E+00 -4.171225272863E+00  9.081125344409E-01 -2.060835742179E+01       18
 Si  2.011929149606E+01  2.027838288406E+01  1.826994362146E+01  0.000000000000E+00  1.633972414405E+01 -1.185470270021E+01  2.339533178543E+01 -1.068057306248E+01  2.576348945518E+01  1.646892896193E+01       19
 Si  1.749831120980E+01  2.151235156539E+01  1.880860788633E+01  0.000000000000E+00  3.631948731755E+01 -1.126478744337E+01  1.198310728365E+01 -9.848991603787E+00  1.114830729510E+01  4.465102777530E+01       20
 O   1.852746363656E+01  2.011445228139E+01  1.882797483593E+01  0.000000000000E+00 -5.856474801602E+00  2.987117196225E+01  2.832448401741E+00  2.796067554598E+01  2.787240009772E+00 -6.358117076614E+00       22
 O   2.088304040596E+01  2.174307380876E+01  1.794622315774E+01  0.000000000000E+00 -1.852820871343E+01 -3.852659706157E+01 -2.348255528375E+00 -3.179894960835E+01 -2.732536793483E+00 -1.929126227641E+01       23
 O   1.998914286279E+01  1.944253132488E+01  1.691056784794E+01  0.000000000000E+00  1.050881967586E+01  1.648721190214E+01 -1.485402655802E+01  1.434011399214E+01 -1.755820748458E+01  1.022145157188E+01       24
 O   2.108716638723E+01  1.930374415637E+01  1.935925303952E+01  0.000000000000E+00 -2.403835404586E+01 -3.200957377538E+01  1.285404047305E+01 -3.210161890798E+01  1.400132999192E+01 -2.200533859886E+01       25
 O   1.826958436199E+01  2.242051758982E+01  2.005733017252E+01  0.000000000000E+00 -3.433341051863E+01 -5.303317261270E+00 -4.780976458982E+01 -4.744332279252E+00 -4.354839452646E+01 -4.213411860934E+01       26
 O   2.183462276600E+01  1.714736953263E+01  2.119790432276E+01  0.000000000000E+00  8.036289067937E+00  1.254035950373E+01  9.013062824308E+00  1.550263090949E+01  9.283786913016E+00  6.311133459723E+00       27
 O   1.807656212127E+01  2.215348513892E+01  1.732344704545E+01  0.000000000000E+00 -2.026444262784E+01 -3.786584338696E+00  2.139927855541E+01 -2.961010101263E+00  2.232958528072E+01 -2.483481237154E+01       29
 Ca  4.600104219752E+00  1.074835967881E+01  1.435442240815E+01  0.000000000000E+00  5.395846473096E+00 -1.154545653439E+01 -8.918389550970E+00 -1.541894437309E+01 -2.858040556443E+00  1.260764884749E+01       32
 Si  1.397015834807E+01  1.976890782413E+01  1.287130187144E+01  0.000000000000E+00 -1.551405205696E+01 -2.084810873778E+01  4.559930450986E+00 -1.357395681137E+01  4.949223558947E+00 -2.195364271838E+01       37
 Si  1.256848061096E+01  2.211312965463E+01  1.423956670347E+01  0.000000000000E+00  3.386924679531E+01  1.670170298994E+01 -5.817074268016E+00  1.075492331937E+01 -5.134410805648E+00  5.958994319778E+01       38
 O   1.280160471214E+01  2.110442713146E+01  1.290858347126E+01  0.000000000000E+00  1.469174815989E+01 -1.745072250190E+01  1.356021938156E+01 -1.067378454039E+01  1.344784024669E+01  2.422047356141E+01       40
 O   1.369690558931E+01  1.877260022557E+01  1.429051640384E+01  0.000000000000E+00 -1.119721208995E+01  9.115186839625E+00 -2.427351418413E+01  6.938875035454E+00 -2.326522168305E+01 -1.534658940554E+01       41
 O   1.556314427836E+01  2.009729687977E+01  1.279582442094E+01  0.000000000000E+00 -9.241641025072E+00  1.259493849982E+01 -1.716206318855E+00  8.019119317401E+00 -2.087365821311E+00 -1.193409249540E+01       42
 O   1.341009055631E+01  1.891816362104E+01  1.151088440881E+01  0.000000000000E+00  2.790201307121E+00  1.927400815249E+01  1.321577696213E+01  1.172740041697E+01  1.539627708350E+01  3.936251186531E+00       43
 O   1.388979650117E+01  2.320263283199E+01  1.431580674697E+01  0.000000000000E+00 -3.258905401785E+01 -4.043776522048E+01 -4.357265101903E+00 -2.494972171337E+01 -4.227601464367E+00 -5.443937603078E+01       44
 O   1.102393870531E+01  2.270566224155E+01  1.399403103495E+01  0.000000000000E+00  1.565624141987E+01 -4.380392077975E+00 -8.105403607280E+00 -2.699738154841E+00 -6.385113219009E+00  3.224667146238E+01       46
 O   8.623073691514E+00  2.182680273413E+01  1.376034845402E+01  0.000000000000E+00 -2.674819269041E+00  2.279584591770E+01  1.815146933600E+01  1.437126577596E+01  1.137481788463E+01 -6.770526916898E+00       47
 O   1.674766182886E+01  1.563884869992E+01  1.058222915789E+01  0.000000000000E+00  7.905968539215E+00 -1.168974954244E+01 -2.631514271252E+00 -7.910020157499E+00 -4.164690676717E+00  7.382537758078E+00       48
 Ca  6.070773923100E+00  2.081961002164E+01  1.292145611843E+01  0.000000000000E+00  2.500026309550E+00 -1.654121714008E+00 -6.708868131554E+00 -1.026611983600E+00 -3.151968426257E+00  8.573795280141E+00       49
 Si  2.016433662832E+01  2.041237813486E+01  2.306133393334E+01  0.000000000000E+00  2.903707581696E+01 -4.572347532760E+01 -1.888936098119E-01 -5.165710365330E+01 -1.651645280448E-01  2.939426088899E+01       51
 Si  1.953050479748E+01  2.229925633473E+01  2.100630281968E+01  0.000000000000E+00 -3.544333494011E+01  3.584825440649E+01  4.552413108754E+01  3.376970407964E+01  4.232583278639E+01 -4.046797660291E+01       52
 O   1.921474846150E+01  2.089652442358E+01  2.188124304281E+01  0.000000000000E+00 -2.121157453495E+01  3.648031185482E+01 -1.021623913656E+01  3.819939401368E+01 -8.971266616229E+00 -2.306812322941E+01       54
 O   1.958482413978E+01  1.885721837765E+01  2.352818348893E+01  0.000000000000E+00  2.328211863990E+00 -4.769091768436E+00 -3.316487352969E+00 -5.950403922577E+00 -2.760639026819E+00  2.241715280943E+00       55
 O   2.156081517685E+01  2.003135253218E+01  2.225977134190E+01  0.000000000000E+00 -2.250577823383E+01  9.474286303912E+00  5.033338108556E+01  1.052826794466E+01  4.875291440074E+01 -2.090928260899E+01       56
 O   2.037079450598E+01  2.123953001639E+01  2.442341272239E+01  0.000000000000E+00 -2.681756808385E+00 -4.304570377048E+00 -4.741062823407E+00 -4.949841113720E+00 -3.954370243559E+00 -2.796123352559E+00       57
 O   1.593719608935E+01  2.129385722597E+01  1.902003688780E+01  0.000000000000E+00  7.058794470846E+00  1.557973033148E+01 -1.878991828547E+01  1.391608117130E+01 -1.574437599595E+01  9.431330380011E+00       58
 O   1.465158008669E+01  1.170785739635E+01  1.144224612667E+01  0.000000000000E+00 -3.758006716478E+01 -7.777262681603E+00  3.488666396791E+01 -7.600823172173E+00  4.467171440158E+01 -3.002966674633E+01       59
 H   5.022083869622E+00  7.045871864638E+00  1.602861430475E+01  0.000000000000E+00 -1.962803540332E+00 -1.720584376911E+01 -6.010898511138E+00 -3.914147728786E+01 -1.883334134865E+00 -2.753769670055E+00       70
 H   1.389761654276E+01  1.904097438130E+01  1.691800465792E+01  0.000000000000E+00  7.805918260740E+00 -1.305557556579E+01  2.927998286538E+00 -1.159994671547E+01  2.405259854632E+00  1.069480433339E+01       73
 H   1.529747579432E+01  1.067139848935E+01  1.522462626506E+01  0.000000000000E+00  1.705239837008E+01  1.425007526189E+01  1.407239179991E+01  2.033023790910E+01  1.413972791051E+01  1.189561864016E+01       83
 Si  2.162850286752E+00  2.117394913090E+01  2.095990745976E+01  0.000000000000E+00  1.368517283624E+01  9.766000325884E+01 -1.922916685748E+01  9.667278494770E+01  1.095370981176E+00  3.617951855648E+01       89
 Si  2.292705735797E+00  2.068932253646E+01  1.793095995698E+01  0.000000000000E+00 -6.268425169145E+00  6.717928390218E+01  2.845002145339E+01  5.822274013397E+01  2.611265519581E+00  8.475671319562E+00       90
 O   1.494169983569E+00  2.113319137052E+01  1.929647328848E+01  0.000000000000E+00  3.854464557757E+01 -6.304963397711E+00  4.223853624393E+01 -5.756989356490E+00  6.577271002049E-02  8.525498832962E+00       92
 O   2.261231265944E+00  1.971339761712E+01  2.136929989504E+01  0.000000000000E+00  4.120013369863E-01 -5.535455173001E+01  1.749554509215E+01 -6.000426914976E+01  2.070130237288E+00 -7.264143351553E+00       95
 O   1.382831570217E+00  1.986772348857E+01  1.699416062881E+01  0.000000000000E+00  1.393794619727E+01 -3.294529225998E+01 -6.073836942455E+01 -2.818025874738E+01 -1.005494384453E+01 -1.792400079341E+01       96
 O   3.733452361063E+00  2.009868242412E+01  1.819058678941E+01  0.000000000000E+00  5.477929877641E+00  6.788269770454E-02  3.861568181033E+00  6.143816186734E-02  8.374276602669E-01  2.852811371414E+01       97
 O   1.104603867126E+01  1.548743541479E+01  2.064952050982E+01  0.000000000000E+00  6.968245282046E+01 -4.070587683985E+01  8.245439266779E+01 -5.427346853516E+01  4.410729099450E+01  9.770040823858E+01       98
 O   3.481941717952E+00  1.231212793231E+01  2.007953738850E+01  0.000000000000E+00  8.062463315508E-02 -4.879474190667E-01 -6.782810434367E+00 -7.957810785137E-01 -1.177871612837E+00  5.818785393417E-01      101
 Ca  2.216019928403E+01  2.364501042951E+01  1.853413613195E+01  0.000000000000E+00 -1.790722430853E+01 -7.800547841990E-01 -1.215589565798E+00 -6.114457679697E-01 -1.453410444053E+00 -1.910707120056E+01      102
 O   1.659345416835E+01  3.834454776252E+00  1.051666110978E+01  0.000000000000E+00 -5.587730156801E+01 -6.133226846207E+00  8.654038805603E+00 -1.683564105383E+01  1.365456153744E+01 -1.291291929102E+01      105
 Si  5.089199994993E+00  1.626849168743E+01  1.971445000491E+01  0.000000000000E+00  6.482564790976E+00 -3.119451506667E+01 -1.395904453827E+01 -3.780207283656E+01 -3.603466968472E+00  2.072261878468E+01      107
 Si  8.142998626564E+00  1.696863450321E+01  2.014761443019E+01  0.000000000000E+00  7.128601891877E-01  2.427874586076E+01  2.271854518819E+01  2.882723476417E+01  9.182083710506E+00  1.485480295029E+00      108
 Si  7.308863167949E+00  1.997835790516E+01  1.968496142331E+01  0.000000000000E+00  1.563710641374E+01 -4.924470236789E+01  2.782513552754E+01 -4.852150867532E+01  1.033124240516E+01  4.274313273573E+01      109
 O   6.852461343124E+00  1.621500564893E+01  1.951734256473E+01  0.000000000000E+00 -1.199529868297E+01  2.301157737362E+00 -1.251305554451E+01  2.769809941974E+00 -4.393284030280E+00 -2.838452143917E+01      110
 O   4.165293814699E+00  1.685329793147E+01  1.853440319309E+01  0.000000000000E+00  2.928279794791E+00  1.734195189362E+01 -1.320999739299E+01  1.907180006301E+01 -2.968723614135E+00  1.184818502699E+01      111
 O   4.786794524930E+00  1.669898349416E+01  2.117227120966E+01  0.000000000000E+00 -7.412791275480E-01  1.890345340873E+01  2.357089097611E+01  2.396726977476E+01  5.329156339506E+00 -2.583751219134E+00      112
 O   4.632987056407E+00  1.463922337419E+01  1.963964588649E+01  0.000000000000E+00  5.626292270977E-01 -1.891953163498E+01  2.213409346013E+01 -2.538200915114E+01  5.221426552128E+00  1.777785008257E+00      113
 O   8.454630290605E+00  1.623413727244E+01  2.166743084061E+01  0.000000000000E+00 -1.965070000850E+00  4.721221519362E+00  8.358613003908E+00  6.301335207239E+00  3.261530322176E+00 -3.773224262591E+00      114
 O   1.184033320962E+01  1.391515152493E+01  3.577207912668E+01  0.000000000000E+00 -5.189642201241E+01  1.866333124722E-02  3.788568989008E+01  4.797836092166E-02  1.253992507917E+01 -6.099039301681E+01      115
 O   7.680230622932E+00  1.853319731255E+01  2.056958856952E+01  0.000000000000E+00  2.172181773179E+00 -3.268040982642E+00 -2.108088038592E+01 -3.627126896004E+00 -7.871135708482E+00  5.241701112572E+00      117
 O   5.929751181212E+00  2.029977437147E+01  2.038867623337E+01  0.000000000000E+00 -6.679549842858E+00  2.679453208931E+01 -1.472209109390E+01  2.691187742271E+01 -4.281706965902E+00 -2.286661793543E+01      118
 O   6.938253091029E+00  1.049676802159E+01  2.176767753081E+01  0.000000000000E+00 -3.349739013736E-01 -1.312468518358E+01  1.304606776025E+01 -2.721732195872E+01  4.158317755084E+00 -5.067764594164E-01      119
 Ca  2.305051008184E+01  1.933311101400E+01  2.107102510312E+01  0.000000000000E+00  1.785127940071E+01 -3.133434325811E+01 -8.555828131166E+00 -3.415108581869E+01 -9.359592218735E+00  1.497237003305E+01      120
 Ca  2.862698189734E+00  1.199494124296E+01  1.766118624615E+01  0.000000000000E+00 -2.267126529428E-01  9.798066794326E+00  1.862803003828E+01  1.442653857170E+01  3.518898496168E+00  3.067690343218E+00      121
 Si  1.061068724482E+00  1.714764813478E+01  1.385524887781E+01  0.000000000000E+00 -2.004007900432E+02 -1.212723169432E+00  2.831156188088E+01 -9.798767271347E-01 -8.758837438403E+01  6.556925201893E+01      125
 Si  2.093852994001E+00  1.946980088490E+01  1.535217708199E+01  0.000000000000E+00 -6.684544868382E+00  2.996182974265E+00  3.678039781615E+01  2.362527067579E+00  3.063991998626E+00 -1.298548325728E-01      126
 Si  2.885527138268E+00  2.109152343867E+01  1.301027018585E+01  0.000000000000E+00  6.736942396185E+00 -6.106388148368E+01  2.244898499249E+01 -3.766715092959E+01  3.390229133104E+00  1.191351196256E+02      127
 O   9.806248059050E-01  1.844839603259E+01  1.490710957022E+01  0.000000000000E+00  3.083739178985E+01 -1.480352175881E+01 -9.699107731757E+00 -1.196189199830E+01  2.239752420806E+01 -3.185922422288E+01      128
 O   2.534472137488E+00  1.734306904323E+01  1.300963376498E+01  0.000000000000E+00  2.271753837366E+00 -2.133396910428E+01  1.067374666190E+01 -1.600334543490E+01  3.056982290994E+00 -4.174970513571E+01      129
 O   1.076017269260E+00  1.582647507784E+01  1.497307416965E+01  0.000000000000E+00  1.966344995025E+01  1.622419469079E+01  1.325602773684E+01  1.534934780191E+01  1.867002352620E+01  4.418583733280E+00      131
 O   3.319684797353E+00  1.844641629772E+01  1.573224981686E+01  0.000000000000E+00  2.837688286294E+00  1.497627681479E+01 -2.832699791691E+00  1.277269928066E+01 -8.901491942853E-01  1.785966236214E+01      132
 O   2.841576480309E+00  4.492064114989E+00  8.973189073879E+00  0.000000000000E+00  1.032831219088E-01 -2.928788748138E+00 -1.687826973764E+01 -5.850445256736E+00 -5.948899133659E+00 -4.979491543892E+00      133
 O   2.050555830751E+00  2.086172163363E+01  1.443543343805E+01  0.000000000000E+00  9.269446385788E+00 -1.444919484780E+01  1.230816342424E+01 -9.998234763262E+00  3.482509922237E+00  2.931621934556E+01      134
 O   1.753877760851E+00  2.110205183611E+01  1.201967585446E+01  0.000000000000E+00  3.643118098574E+01  1.913510840688E+01 -3.481717476733E+01  1.089930980537E+01  7.135434090893E+00 -2.928586913504E+01      135
 O   8.708405887097E+00  1.449052972591E+01  1.320479991370E+01  0.000000000000E+00 -1.232504744012E+01  1.659323856345E+01 -1.417630240178E+01  1.512093755682E+01 -9.349100031789E+00 -2.050851425850E+01      136
 Si  8.591593852895E+00  1.432947079212E+01  2.534550205063E+01  0.000000000000E+00  2.542853715386E+01  1.008742296374E+01  2.570143128616E+01  1.784230577124E+01  8.712246402050E+00  4.241092941210E+01      139
 Si  8.523092046372E+00  1.662821391887E+01  2.326989832160E+01  0.000000000000E+00  9.916236169507E+00  2.980208550474E+01 -1.085508403125E+01  4.170571192136E+01 -3.975903937818E+00  1.934618274676E+01      140
 O   8.199047563035E+00  1.532017242490E+01  2.417071305898E+01  0.000000000000E+00 -5.887180494666E+00 -7.623763251676E+00 -5.338314979427E+00 -1.202804961166E+01 -1.810831907027E+00 -1.100037773673E+01      142
 O   7.795144541583E+00  1.304285915296E+01  2.582499651986E+01  0.000000000000E+00 -5.029446882579E+00  1.178545182781E+01  3.585436506794E+01  2.333531696300E+01  1.082245869564E+01 -8.415285561012E+00      143
 O   7.267569470620E+00  1.770083675295E+01  2.364816964065E+01  0.000000000000E+00  1.201984720747E+01 -9.845956030191E+00  3.983870301820E+00 -1.315411478712E+01  1.224325375722E+00  2.927544815016E+01      148
 O   1.238028338945E+01  1.578692559280E+01  2.107829607852E+00  0.000000000000E+00  1.561984871164E+01  2.781658021596E+01  1.995875140818E+00  2.007388304896E+00 -8.254043571058E+00  1.991791153921E+01      150
 Ca  5.017181115128E+00  1.202592925301E+01  7.303331642411E+00  0.000000000000E+00 -2.921550952513E+00 -1.418478979772E+01  8.074472914674E+00 -8.614404923816E+00  5.546933236176E+00 -7.002809796532E+00      151
 Ca  1.261304215564E+01  2.188764306947E+01  1.880321067737E+00  0.000000000000E+00  1.730852822295E-01  1.863118497042E+01 -1.678987063090E+01 -7.499899174206E-01 -1.344645475987E+00  3.003580604320E-01      152
 H   6.800371458085E+00  1.854313145316E+01  1.454929910885E+01  0.000000000000E+00  1.309725114420E+01 -4.783813880523E+01 -2.504230897192E+01 -3.753472772632E+01 -1.170482522238E+01  3.571335053370E+01      155
 H   1.122188785984E+01  1.469531372779E+01  3.562177676025E+01  0.000000000000E+00  1.841639589625E+01 -1.761536994977E+00 -4.750009458837E+00 -4.270005986418E+00 -1.496390082926E+00  2.411668328991E+01      156
 H   1.393014201338E+01  1.115193990858E+01  1.195737820666E+01  0.000000000000E+00  3.376041075746E+01  1.863086616167E+01 -2.146988072214E+01  1.997646282520E+01 -2.501204547526E+01  2.702729603866E+01      159
 H   1.568060276716E+01  3.352575796805E+00  1.099603328203E+01  0.000000000000E+00  5.303023272132E+01  6.046090665456E+00 -1.308765739306E+01  1.956706806726E+01 -1.866330807388E+01  1.130875393201E+01      160
 H   1.598301731901E+01  1.533407926904E+01  1.476683944871E+01  0.000000000000E+00  4.158840168407E+01 -6.072661041974E+01 -3.257790942990E+01 -5.848020546909E+01 -3.526098407474E+01  3.989984089785E+01      164
 H   1.974682492295E+01  5.798716165803E+00  6.936902309572E+00  0.000000000000E+00 -3.502979494748E+01  1.003971751686E+01 -1.114127171501E+01  1.201033774353E+01 -3.171512761131E+01 -1.028660754523E+01      168
 H   5.627721762162E+00  1.958437175715E+01  3.415140149452E+01  0.000000000000E+00  8.589442529047E-01  9.940535847314E+00 -8.247658595894E+01  1.733439474097E+01 -1.359110482609E+01  2.989110741163E+00      169
 Si  1.184582237152E+01  5.500570269287E-01  1.947083513466E+01  0.000000000000E+00  1.697970476370E+01 -1.615393904842E+02 -5.432522562251E+00  3.935895378034E+01 -3.305081515850E+00 -1.008142494467E+02      177
 Si  1.090856690523E+01  3.090702690809E+00  1.837689934929E+01  0.000000000000E+00  2.757863501959E+00 -2.841309314277E+00  2.180698073943E+01 -1.599385368714E+01  1.294467058211E+01  9.846709808154E-01      178
 Si  8.217668544490E+00  3.747491077839E+00  2.006834407037E+01  0.000000000000E+00 -8.219619952368E-01 -1.298055830417E+00  3.712581739440E+01 -6.951272327616E+00  1.520243328102E+01 -3.748380975451E-01      179
 O   1.153708373173E+01  1.528827480087E+00  1.802954286442E+01  0.000000000000E+00 -9.191136053581E+00  9.153260682211E+00  1.717523467572E+01  6.896871727558E+00  1.099041290486E+01 -2.069204169673E+00      180
 O   1.148603976974E+01  1.466059791965E+00  2.072741968951E+01  0.000000000000E+00 -7.806163973498E+00  4.515747619315E+00  3.170605926253E+00 -1.722715480327E+01  1.756982118789E+00  3.681716889307E+00      182
 O   1.026133706821E+01  3.853748102852E+00  1.703151255889E+01  0.000000000000E+00  8.432472585301E+00 -2.810401366982E-01  1.333743163519E+00 -5.682708633610E-01  8.035685683213E-01  3.154076387708E+00      184
 O   1.219304736874E+01  3.816189596344E+00  1.913954627210E+01  0.000000000000E+00 -2.552781371948E+01 -9.889544979015E-01 -8.899844337309E+00 -5.869861862928E+00 -5.669738563103E+00 -7.961616330097E+00      185
 O   9.481172381477E+00  2.917228416055E+00  1.934174659915E+01  0.000000000000E+00  3.607873175008E+00  3.176157446832E+00 -1.111778676584E+00  2.006943623821E+01 -5.449851815974E-01  1.106943977771E+00      187
 O   6.809747864011E+00  3.327175222817E+00  1.949710597503E+01  0.000000000000E+00  1.746443207753E+00  2.475461371166E+00 -5.615844483935E+00  1.134662188267E+01 -1.961444176796E+00  1.057790813421E+00      188
 Ca  1.206061969200E+01  3.282343932794E+00  2.136703035855E+01  0.000000000000E+00  8.260238551078E+00  1.794388245986E+00  1.690347222413E+01  2.260126310827E+01  9.541164427086E+00  1.947910833006E+00      190
 O   1.572027199981E+01  1.774629422505E+01  7.374869127902E+00  0.000000000000E+00 -1.022099492477E+01  1.078733378776E+01 -1.406957984924E+01  4.482917611690E+00 -2.999071825103E+01 -1.153827256996E+01      193
 O   4.352515938770E+00  1.203289888245E+01  1.253847328896E+01  0.000000000000E+00  5.235510413143E+00 -2.178839858712E+01 -2.597814592147E+01 -2.270386017224E+01 -9.096123469323E+00  1.497939669552E+01      194
 Si  1.864025931195E+01  1.493603745330E+00  1.976083469798E+01  0.000000000000E+00 -8.051714366392E+00  3.780702846586E+00 -1.448841024846E+01  3.022467969791E+01 -1.366681763077E+01 -3.977804089506E+00      196
 Si  1.634578961214E+01  3.902887744340E+00  1.918429125514E+01  0.000000000000E+00 -2.939109141450E+01 -4.637711764182E+00  4.692254625378E+01 -2.279625217775E+01  3.997990120822E+01 -7.017717295788E+00      197
 O   1.995494781297E+01  1.719082570496E+00  2.069210927007E+01  0.000000000000E+00  2.341464100212E+01  3.461379462184E+00 -2.977538933336E+01  9.866476128629E+00 -2.871463380089E+01  2.749088249104E+00      202
 O   1.747842983557E+01  2.713966137606E+00  1.977432021756E+01  0.000000000000E+00  1.167328726541E+01  2.998393514910E+00 -1.110089927584E+01  1.134075757979E+01 -9.812033332613E+00  1.538493687333E+00      205
 O   1.579718267312E+01  5.030623261640E+00  2.034433783567E+01  0.000000000000E+00 -1.295792022244E+00 -6.302159664391E+00 -5.740926757865E+00 -2.548655676214E+01 -4.457774415639E+00 -4.126458257930E-01      206
 Ca  1.361638234309E+01  5.374637061642E+00  1.908323595047E+01  0.000000000000E+00  1.358461957986E+01  2.365766275617E+00 -8.713914173282E+00  8.399911570489E+00 -6.217603104432E+00  5.362099713607E+00      209
 O   2.238245261983E+01  1.918541955505E+01  1.509515014830E+01  0.000000000000E+00 -1.028164213945E+01  1.863260767616E+01  3.693075004026E+01  1.466019597429E+01  5.475936011702E+01 -8.813047502465E+00      210
 O   1.394559570706E+01  1.635789673511E+01  4.380531687219E+00  0.000000000000E+00  5.258315863378E+00 -1.692692118880E+01  1.604346480714E-01 -4.533075008822E+00  5.155483198243E-01  6.167896280701E+00      212
 Si  1.419214819335E+01  3.571805348008E+00  1.538790432224E+01  0.000000000000E+00  1.358242901953E+01  2.493236658655E+00  2.323269770198E+00  1.588965394000E+01  2.142734200923E+00  3.417903732360E+00      213
 Si  1.136467241707E+01  4.521468758149E+00  1.600702853805E+01  0.000000000000E+00  1.366438049655E+01  2.111220869941E+00  1.307940771207E+01  7.474202415835E+00  9.286119763179E+00  5.436414464690E+00      214
 Si  9.986936829475E+00  6.163956167251E+00  1.375622399987E+01  0.000000000000E+00  6.055411922963E+00  1.403705760832E+01 -1.577140246638E+01  3.132678161877E+01 -1.144994441392E+01  3.737411611299E+00      215
 O   1.261651597647E+01  3.480556670540E+00  1.588570608708E+01  0.000000000000E+00 -5.137191789763E+00 -2.037988452620E+00 -5.915050899719E+00 -1.326703963466E+01 -4.697766266659E+00 -1.794678760781E+00      216
 O   1.522424873520E+01  3.923019474629E+00  1.664737555087E+01  0.000000000000E+00 -5.263056858337E+00  1.278085467937E+00 -2.862007940139E+00  3.029478454830E+00 -2.617344735791E+00 -1.207300385715E+00      217
 O   1.428357361097E+01  4.827944822700E+00  1.433674802043E+01  0.000000000000E+00  1.775689520935E+01 -5.431614039515E+00  1.294812063710E+01 -1.612936449949E+01  1.290009658956E+01  6.001951096285E+00      218
 O   1.483359531801E+01  2.065039490469E+00  1.512010103296E+01  0.000000000000E+00 -1.944755093981E+01  1.111975991269E+01 -1.684948403333E+01  1.024600473029E+01 -1.653020882089E+01 -2.618315702362E+00      219
 O   1.216740867248E+01  5.768701504956E+00  1.675283849562E+01  0.000000000000E+00 -4.574718505938E+00  1.613265357416E+00  6.308638131541E+00  4.685070628137E+00  4.581896872780E+00 -2.168924069234E+00      220
 O   1.075985392378E+01  5.002406883545E+00  1.459694327261E+01  0.000000000000E+00 -2.175316295158E+00 -3.127777473962E+00  1.075883621149E+01 -9.126804640174E+00  7.930667665381E+00 -1.011335031671E+00      222
 O   1.113245070435E+01  6.875988742204E+00  1.287549780404E+01  0.000000000000E+00  2.903256927335E+00 -1.435680752022E+00  4.534565008982E+00 -2.688355822414E+00  3.920688908225E+00  1.793204612195E+00      223
 O   2.114912070472E+01  2.132810711923E+01  1.312431568431E+01  0.000000000000E+00  5.875297400919E+01 -7.074456086075E+00 -1.792881655821E+01 -4.353288102380E+00 -2.889131247701E+01  5.925020433411E+01      224
 Ca  1.579061496063E+01  7.585427586787E+00  6.131107605165E+00  0.000000000000E+00  8.779867009536E+00 -3.767798446412E+00 -4.990679629036E+00 -3.045415363237E+00 -1.285345250629E+01  4.217634689245E+00      225
 Ca  1.699588090672E+01  4.583528654449E+00  1.536548419897E+01  0.000000000000E+00 -3.476610229137E+00  2.108458325443E+00  2.631227672981E+00  7.068240547016E+00  2.910421278584E+00 -9.375885070658E-01      226
 Si  2.148154167974E+01  2.208429875415E+00  2.008126150179E+01  0.000000000000E+00 -6.417418158361E+00 -1.947602601260E+00  6.977120692430E+01  1.682133855708E+01  7.463640117713E+01  2.530220101263E+00      228
 Si  2.290830200849E+01  4.780359462737E+00  2.159935532216E+01  0.000000000000E+00  1.881910975566E+00 -2.984591003977E+00 -6.822389657133E+01 -1.348543809074E+01 -7.235834604971E+01  3.927052706370E-01      229
 O   2.257718070023E+01  1.260632677668E+00  2.073652115207E+01  0.000000000000E+00  7.352467227262E+00  2.395131453690E+01 -1.306138716863E+00 -3.000926817857E+01 -1.422077001920E+00 -7.280085340643E+00      230
 O   2.206625892955E+01  3.531539852585E+00  2.094270025020E+01  0.000000000000E+00 -9.165551958022E+00  4.349273403226E+00  3.386440996388E+01  2.748385245828E+01  3.568120776366E+01 -1.425021638529E+00      236
 O   2.340860859583E+01  4.627251655214E+00  2.316628039904E+01  0.000000000000E+00 -3.861939752567E+01 -1.026827585568E+01  1.346356692427E+00 -5.141996022088E+01  1.360440100894E+00 -7.633605300890E+00      237
 H   1.357370955787E+01  1.541899970830E+01  4.598324913620E+00  0.000000000000E+00  9.683547590402E+00  3.203142584142E+01 -2.217064625562E+00  9.552558937145E+00 -6.544511721928E+00  1.099998617438E+01      243
 H   1.873844366340E+01  1.876464335115E+01  7.160111455800E+00  0.000000000000E+00  3.949968839568E+00 -2.195816261385E+00  3.969777237044E+00 -8.378677320829E-01  1.038914653380E+01  3.955491600799E+00      247
 H   1.343361982409E+01  8.534882152550E+00  7.963100869700E+00  0.000000000000E+00  1.837012049271E+01 -3.924429407982E+00 -8.510189280486E+00 -3.661518304906E+00 -1.435654894943E+01  1.167122604231E+01      248
 H   6.183117307942E+00  1.064371513805E+01  1.044584206367E+01  0.000000000000E+00 -7.877903900159E-01  2.983713672701E+00  8.573836406121E+00  2.928244638643E+00  5.075037125300E+00 -1.356114736664E+00      249