     8448
Lattice="     49.70      0.00      0.00      0.00     49.70      0.00      0.00      0.00     49.70" pbc="T T T" config_type=md Properties=species:S:1:pos:R:3:charge:R:1:forces:R:3:id:I:1
 Si  1.077171266414E+01  1.742712163030E+01  1.692411960913E+01  0.000000000000E+00 -4.695941416488E+00 -1.548599462842E+01 -1.158074238414E+01 -1.503901969112E+01 -7.370807597707E+00 -7.597375160805E+00        1
 Si  1.259409700542E+01  2.016149216743E+01  1.694894253121E+01  0.000000000000E+00  2.553842121624E+01  2.195955495827E+01  2.159760348233E+01  1.846050043855E+01  1.604833533657E+01  4.088365200761E+01        2
 Si  1.099463968708E+01  2.241471336212E+01  1.804137436723E+01  0.000000000000E+00  9.180943396926E+00  2.122785624312E+01  2.094678839079E+01  1.708608516686E+01  1.276523541225E+01  1.871714039686E+01        3
 O   1.142662968162E+01  1.907989191076E+01  1.676275960026E+01  0.000000000000E+00  1.951535884424E+00 -6.979636429831E+00  6.318453891536E+00 -6.132003688370E+00  4.307085139958E+00  3.258624351385E+00        4
 O   9.214948059232E+00  1.757577614721E+01  1.627611107165E+01  0.000000000000E+00  1.346554339507E+01 -8.912693648693E+00  1.208679083874E+01 -8.253632190051E+00  6.843105781933E+00  2.568298539405E+01        5
 O   1.135990737682E+01  1.636297473549E+01  1.580642088194E+01  0.000000000000E+00  4.740258972907E+00  1.167638729368E+01  1.600529450740E+01  1.127923833703E+01  1.150283574636E+01  6.827937521005E+00        6
 O   1.096747309273E+01  1.734646849283E+01  1.862318909134E+01  0.000000000000E+00  8.290220361866E+00  1.040683310416E+01 -5.382188424991E+01  1.117278832985E+01 -3.169650828416E+01  1.311204915570E+01        7
 O   1.304530060622E+01  2.074817896822E+01  1.550873042739E+01  0.000000000000E+00  1.009977930282E+00 -1.281088619298E+01  1.139889277916E+01 -9.575808113434E+00  9.588275686293E+00  1.606341124975E+00        8
 O   1.410543954678E+01  1.980886634200E+01  1.766359154224E+01  0.000000000000E+00 -1.572499926106E+01  1.033093995296E+00 -5.927740038647E+00  9.212112416026E-01 -4.733656717788E+00 -2.208328266249E+01        9
 O   1.241104140495E+01  2.153354015461E+01  1.809523440028E+01  0.000000000000E+00 -9.997849243621E+00 -3.361457375228E+01 -3.011602673043E+01 -2.824726389370E+01 -2.065578408303E+01 -1.734657722287E+01       11
 O   1.874814412426E+01  1.795294741004E+01  2.159461852736E+01  0.000000000000E+00 -2.968777390245E-01  2.281221063246E+01 -4.335929135995E+00  2.743956048677E+01 -3.764392700489E+00 -2.842857618648E-01       13
 Ca  4.451478103811E+00  1.566774727445E+01  1.597391018604E+01  0.000000000000E+00 -2.408890196022E+00 -3.526208198537E+00  1.065851218774E+01 -3.595113711884E+00  2.970226642716E+00 -8.478505773368E+00       14
 Ca  2.017897456147E+01  1.439594340565E+01  1.880595362549E+01  0.000000000000E+00  8.254258005152E+00 -1.426559788474E+00  4.651054948234E+00 -1.863567844780E+00  4.990628040112E+00  5.888695222632E+00       15
 O   7.942227324362E+00  3.284679295247E+00  1.562792945202E+01  0.000000000000E+00  2.798291285942E+00  5.706554745443E+00 -1.903382166702E+01  1.732407905042E+01 -9.673126500537E+00  1.446436781140E+00       16
 O   9.665831114958E+00  1.619383132412E+01  2.089164993735E+01  0.000000000000E+00  1.477095813759E+01 -4.849564277194E+01 -1.792894653468E+01 -6.256419324125E+01 -8.295092527063E+00  2.474680156635E+01       18
 Si  2.004795013678E+01  1.937285605683E+01  1.837829000582E+01  0.000000000000E+00 -4.942018376482E-01  2.380391633480E+01 -8.580648169934E+00  2.258186796990E+01 -9.360196546993E+00 -4.775600995840E-01       19
 Si  1.824774726816E+01  2.172139820108E+01  1.926418079780E+01  0.000000000000E+00  1.249009739412E+01  2.717545315369E+01 -3.545994726441E+00  2.410124974317E+01 -3.358897856155E+00  1.486771901655E+01       20
 O   1.861977948051E+01  2.027702978271E+01  1.862658214940E+01  0.000000000000E+00  1.258684069572E+01 -2.099603227669E+01  9.747272921758E+00 -1.928706147813E+01  9.743713091528E+00  1.370713030863E+01       22
 O   2.135912203805E+01  2.042236769372E+01  1.826638890932E+01  0.000000000000E+00 -9.415939590839E+00  7.034664303081E+00  3.504048323664E+00  6.292018434575E+00  4.097328494643E+00 -9.002981497244E+00       23
 O   1.992179911812E+01  1.856990383837E+01  1.701509519949E+01  0.000000000000E+00  4.272413907003E+00 -6.892091726407E+00  3.963154806829E+00 -6.315035224152E+00  4.640184084192E+00  3.982487472156E+00       24
 O   2.059212196076E+01  1.880410929229E+01  1.982317934981E+01  0.000000000000E+00 -3.916386573116E+01 -6.140530437606E+01  1.938031889558E+01 -6.473310395909E+01  2.013208291636E+01 -3.576326970677E+01       25
 O   1.890597152154E+01  2.219794517995E+01  2.071427966382E+01  0.000000000000E+00 -1.091935038098E+00  6.282316675762E-01  3.153537011130E-01  5.862419404297E-01  2.878240609481E-01 -1.282066572889E+00       26
 O   2.115222760160E+01  1.643013373140E+01  2.155518114935E+01  0.000000000000E+00 -4.150054883698E+00  1.317465633900E+01 -1.507033540177E-01  1.728422352552E+01 -1.478860985866E-01 -3.223582783624E+00       27
 O   1.925571277760E+01  2.269732283911E+01  1.818005727228E+01  0.000000000000E+00 -1.959583536608E+01 -3.761167599915E+01  1.439951524804E+01 -3.012612670745E+01  1.525148824342E+01 -2.309823618284E+01       29
 Ca  5.191437285077E+00  9.904878793548E+00  1.457197909194E+01  0.000000000000E+00 -2.710651010813E+00 -3.877649019055E+00  1.096015511545E-01 -5.704766470072E+00  3.904682923134E-02 -5.171721864171E+00       32
 Si  1.383466279526E+01  1.963447706653E+01  1.193477786124E+01  0.000000000000E+00 -8.664192160629E+00 -5.668053319961E+01  4.417844402098E+00 -3.445314945245E+01  5.121116479548E+00 -1.229642419158E+01       37
 Si  1.273490988509E+01  2.143213997111E+01  1.408566472911E+01  0.000000000000E+00  1.269552839303E+01  3.896502999874E+01  1.053949211550E+00  2.560865827965E+01  9.528800018087E-01  2.136586312599E+01       38
 O   1.264668491689E+01  2.024441587427E+01  1.295837816418E+01  0.000000000000E+00 -8.609976911371E+00  1.249531361103E+01 -9.944393210176E+00  7.998205532695E+00 -9.705196593691E+00 -1.378258052661E+01       40
 O   1.391590970195E+01  1.805308015819E+01  1.285091715495E+01  0.000000000000E+00  1.968766402568E+01  2.279392562079E+01  2.017628529579E+01  1.622564389135E+01  2.184835221576E+01  2.554076480774E+01       41
 O   1.504161320210E+01  2.066824835863E+01  1.208133311142E+01  0.000000000000E+00  1.258206669877E+00 -2.142474374026E+01 -1.316847545754E+01 -1.252353181854E+01 -1.639513723087E+01  1.728865620337E+00       42
 O   1.324227197361E+01  1.864656620958E+01  1.068564688879E+01  0.000000000000E+00  9.264661828742E+00  4.287742313051E+01  9.663302807700E+00  2.457144108595E+01  1.197532402808E+01  1.304565640573E+01       43
 O   1.382171163197E+01  2.271503673498E+01  1.393402523597E+01  0.000000000000E+00 -1.073449224001E+01 -4.529906834516E+01 -8.121540898654E+00 -2.778768834282E+01 -8.056078154554E+00 -1.764140303717E+01       44
 O   1.122901306530E+01  2.199962594109E+01  1.422362270722E+01  0.000000000000E+00 -7.405987579432E+00  2.159658103772E+00  1.843868601689E+00  1.396303833843E+00  1.455664639400E+00 -1.450964172224E+01       46
 O   8.738585907887E+00  2.098139085887E+01  1.508364816962E+01  0.000000000000E+00 -8.486793700810E-01  6.529226725607E+00 -1.521286402102E+01  4.693900390644E+00 -8.813446034920E+00 -2.037683644154E+00       47
 O   1.626445569084E+01  1.585810812272E+01  1.101311439193E+01  0.000000000000E+00  3.383369229083E+01 -1.393610785615E+01 -1.889078946801E+00 -9.678326620702E+00 -2.789841250468E+00  3.298839879659E+01       48
 Ca  5.909489750553E+00  2.002206195486E+01  1.453995602865E+01  0.000000000000E+00  3.175724259242E+00  2.404614266259E+01 -1.622084759709E+01  1.746223030180E+01 -6.592656293553E+00  1.075973570546E+01       49
 Si  2.088669955987E+01  2.027597930009E+01  2.363311731506E+01  0.000000000000E+00 -1.014683880578E+01 -1.313260978784E+01 -4.111878641992E+01 -1.530700456809E+01 -3.634034929754E+01 -9.850148559741E+00       51
 Si  2.006035931255E+01  2.241476719777E+01  2.192539772510E+01  0.000000000000E+00 -1.248682805735E+01 -2.968634798005E+01 -3.814647228647E+01 -2.903822202236E+01 -3.490162186188E+01 -1.395235945594E+01       52
 O   1.970162977091E+01  2.116272723608E+01  2.292512889934E+01  0.000000000000E+00  1.721929943468E+00  8.156146198408E+00 -2.225225498416E-02  8.835378391195E+00 -1.912336856167E-02  1.849630418244E+00       54
 O   1.997415449415E+01  1.888376979187E+01  2.412029465335E+01  0.000000000000E+00  7.345784400392E+00 -6.707097308498E+00 -3.919697975128E+00 -8.566995103876E+00 -3.245924398969E+00  6.944779645032E+00       55
 O   2.188668739702E+01  1.969007093505E+01  2.240720435292E+01  0.000000000000E+00 -2.476116116776E+01 -2.987091047092E+00  6.648457393732E+01 -3.399294991560E+00  6.494014440941E+01 -2.227605351982E+01       56
 O   2.144535304018E+01  2.108671016824E+01  2.489060284037E+01  0.000000000000E+00  7.357099972551E+00 -2.029262825528E+01  1.041351198415E+01 -2.395327419306E+01  8.972118607184E+00  7.234062993009E+00       57
 O   1.664126823459E+01  2.188108548579E+01  1.939152236917E+01  0.000000000000E+00  1.600039366284E+01  1.382198869698E+01 -2.267663834240E+01  1.224936501335E+01 -1.946046391462E+01  2.103841946464E+01       58
 O   1.501891293615E+01  1.386591633154E+01  1.357666888467E+01  0.000000000000E+00  2.570902751543E+01  2.565816557987E+01 -1.522276113531E+01  2.512292804432E+01 -1.683986890166E+01  2.373535461653E+01       59
 H   3.666073203830E+00  5.831506774502E+00  1.637210658716E+01  0.000000000000E+00  1.663379075215E+00 -9.446090371405E-01 -1.276728812415E+01 -2.652014382781E+00 -2.810156612796E+00  2.725530741744E+00       70
 H   1.475993625616E+01  1.909774109632E+01  1.759306026429E+01  0.000000000000E+00 -2.099337905087E+00 -6.207946060336E+00 -2.685398688877E+00 -5.718831803515E+00 -2.252951611305E+00 -2.716313342363E+00       73
 H   1.379035655545E+01  7.705184191247E+00  1.448028311217E+01  0.000000000000E+00 -3.454628483980E+01  5.328906954780E+00 -9.719448791821E+00  1.001456674732E+01 -9.256356614259E+00 -1.930229191273E+01       83
 Si  2.685302837649E+00  2.078890660317E+01  2.013022694914E+01  0.000000000000E+00  7.173915677991E+00  2.505355793237E+01 -6.944741986589E+00  2.425975625794E+01 -6.327812138395E-01  4.404733588213E+01       89
 Si  3.323340699471E+00  2.151608205717E+01  1.713242442691E+01  0.000000000000E+00  1.456907108948E+00 -3.832492628898E+01 -5.068268237058E+01 -3.051665733418E+01 -1.050474554940E+01  2.588199017040E+00       90
 O   2.980319269185E+00  2.173608570670E+01  1.865930913653E+01  0.000000000000E+00  8.683341326298E-02 -2.547183732758E+00  4.173014206889E+01 -2.186625933409E+00  6.207220010917E+00 -1.573929162101E+01       92
 O   3.440088715237E+00  1.944563968235E+01  1.977701196118E+01  0.000000000000E+00 -1.638713198676E-01 -2.978189518035E+01 -1.380439425959E+00 -3.028940712826E+01 -2.299556549415E-01 -2.267647036124E+00       95
 O   2.347865535353E+00  2.010114043695E+01  1.654921467514E+01  0.000000000000E+00  7.313765004024E+00  2.386892045948E+01 -1.338269489962E+00  1.965121779964E+01 -9.362281150400E-02  3.348808034873E+01       96
 O   4.958888897523E+00  2.124307989582E+01  1.699492077101E+01  0.000000000000E+00 -5.682702541090E+00 -5.280941870952E+00  7.317059134610E+00 -4.224867068865E+00  2.135019268053E+00 -2.434378075396E+01       97
 O   1.136705034618E+01  1.392021000617E+01  2.150469140082E+01  0.000000000000E+00 -9.781463108542E+00  3.780301351139E+01 -7.177380663474E+01  5.840013471229E+01 -3.793853435733E+01 -1.197848311495E+01       98
 O   3.794167139174E+00  1.247580118734E+01  2.001103859498E+01  0.000000000000E+00 -5.778051843923E+00 -2.019520628764E+01 -3.043137560296E+00 -3.239287372306E+01 -5.780169861460E-01 -1.886095317299E+01      101
 Ca  2.162080061055E+01  2.268630907465E+01  1.892712711385E+01  0.000000000000E+00 -2.319145182989E+01  1.394742395365E+01  5.030964216212E+00  1.163629858047E+01  5.746961677978E+00 -2.433436455846E+01      102
 O   1.577919406000E+01  2.826802900230E+00  1.082696724395E+01  0.000000000000E+00  4.449319591717E+01 -3.106650021284E+00  3.623400505754E+01 -6.009725875277E+00  5.280734526038E+01  7.756676148457E+00      105
 Si  5.952826662336E+00  1.563534608909E+01  1.910770435835E+01  0.000000000000E+00  4.640931674255E+00  5.470511353217E-01 -3.819499037532E+01  6.685423720757E-01 -1.189929218130E+01  1.218959949933E+01      107
 Si  8.228962690041E+00  1.684950459517E+01  2.106586574686E+01  0.000000000000E+00 -2.145502947545E+01  5.945054573233E+01 -1.557287919041E+00  7.432724255488E+01 -6.083236424950E-01 -4.393100702394E+01      108
 Si  7.556932232304E+00  1.994610194310E+01  2.006058610901E+01  0.000000000000E+00  7.568645168811E-01 -8.167150680594E+00  5.879528680165E+01 -8.214027480695E+00  2.214850530909E+01  1.997701758696E+00      109
 O   7.172822884994E+00  1.648906803173E+01  1.991214266114E+01  0.000000000000E+00 -2.111224582584E-01 -1.383456373648E+01 -2.081140698034E+01 -1.670657227233E+01 -7.496759078010E+00 -4.853336870386E-01      110
 O   6.329702406498E+00  1.550261843319E+01  1.740218314312E+01  0.000000000000E+00 -8.153934090035E+00  1.215807944806E+01  5.210137633260E+01  1.364783156701E+01  1.895085257073E+01 -1.997050110878E+01      111
 O   4.676883594462E+00  1.654315256112E+01  1.964358088204E+01  0.000000000000E+00  8.469741918281E-02 -1.052449352080E+01 -2.574195549752E+01 -1.249693726480E+01 -6.128828042028E+00  2.995931583017E-01      112
 O   5.807022828247E+00  1.413300324373E+01  1.967050882082E+01  0.000000000000E+00 -1.265922985211E+00 -4.494198419179E-01  6.400108135668E+00 -6.255087338651E-01  1.889405830099E+00 -3.080975257972E+00      113
 O   7.529581826761E+00  1.636276273864E+01  2.245178931837E+01  0.000000000000E+00  5.404919797055E+00  1.940592434144E+01  2.038572536965E+01  2.662739366216E+01  6.836692839580E+00  1.174559521304E+01      114
 O   1.203452979622E+01  1.209873085183E+01  3.417082056067E+01  0.000000000000E+00  6.500506343068E+00  9.243579629583E+00 -3.836905010487E+01  2.610692846457E+01 -1.351309301806E+01  6.535184837056E+00      115
 O   8.206047839615E+00  1.862502284837E+01  2.094720878545E+01  0.000000000000E+00  1.944538794701E+00 -2.769068845615E+01 -2.638789935011E+00 -3.114319038566E+01 -1.033743286143E+00  4.413461898918E+00      117
 O   5.909890368024E+00  1.991804004445E+01  2.024599700596E+01  0.000000000000E+00  3.229102514689E+00  6.261088852774E+00 -9.220172853121E+00  6.364179702643E+00 -2.691406638069E+00  1.088300952979E+01      118
 O   7.185747260101E+00  9.940768913217E+00  2.122647523141E+01  0.000000000000E+00  1.907290647910E+00  8.552789518242E+00  1.954586915213E+00  1.826272961914E+01  6.616815753676E-01  2.638547515648E+00      119
 Ca  2.236313533930E+01  1.967912137570E+01  2.035958831421E+01  0.000000000000E+00  4.012631680607E+01  2.332522893560E+01  3.517294006435E+00  2.413177140368E+01  3.863423988740E+00  3.531037338038E+01      120
 Ca  2.482058456220E+00  1.246090718502E+01  1.835428957372E+01  0.000000000000E+00 -1.588989831962E+00 -1.156873931212E+00 -1.938345029777E+01 -1.704017116770E+00 -2.031579776407E+00 -2.115251915524E+00      121
 Si  1.991481420221E+00  1.693798851749E+01  1.364204934418E+01  0.000000000000E+00 -5.593144738431E-01  1.134133118170E+01  2.048082717440E+01  9.134437625210E+00  5.669131905412E+00  6.922287303356E+00      125
 Si  3.082821026585E+00  1.921296742175E+01  1.517391765070E+01  0.000000000000E+00 -1.029211039998E+01  6.628261749184E+00  3.343384143842E+01  5.234834148293E+00  7.336141159193E+00 -5.344057400894E+01      126
 Si  3.105099152049E+00  2.133736748534E+01  1.281006421429E+01  0.000000000000E+00 -9.490151031573E+00  2.620556611018E+01  1.267236069599E+01  1.573272733264E+01  3.427873234742E+00 -3.395020015478E+01      127
 O   1.654114531855E+00  1.820052409059E+01  1.478573045133E+01  0.000000000000E+00  2.079380084568E+01  1.812371236147E+01 -1.882093784210E+01  1.472333018656E+01 -4.051990299917E+00  4.223364005218E+01      128
 O   3.236406978672E+00  1.709911131472E+01  1.269185271468E+01  0.000000000000E+00  5.721682121210E+00  2.133085217987E+01 -1.493657572398E+01  1.583287161319E+01 -3.459756591941E+00  2.017947778210E+01      129
 O   2.317180950268E+00  1.563413940100E+01  1.456379391041E+01  0.000000000000E+00  1.914085813242E+00  2.149784605362E+00  2.378998573441E+01  2.002605908851E+00  5.002736117831E+00 -1.188001275338E+01      131
 O   4.155143964666E+00  1.823695724377E+01  1.591198442272E+01  0.000000000000E+00  1.343006374870E+00  8.049059042645E+00 -2.052999124485E+01  7.022909600110E+00 -5.361057863651E+00  5.894464799510E+00      132
 O   2.148024447922E+00  4.009004792903E+00  8.803919869888E+00  0.000000000000E+00  1.356982569230E+01  4.097126490463E-01 -6.265334979985E+00  9.891626263752E-01 -4.957857847059E+00  1.519203053734E+01      133
 O   3.620105176471E+00  2.067756398552E+01  1.433623927382E+01  0.000000000000E+00 -3.239198454361E+00 -4.639138366943E+01  2.494489945011E+00 -3.216423254666E+01  6.534092411192E-01 -1.976014540003E+01      134
 O   1.451134687357E+00  2.110230896066E+01  1.249783816686E+01  0.000000000000E+00  2.972618040617E+01  2.125835949797E+01 -6.725978473567E+00  1.259025906567E+01 -6.391671331437E+00  7.967995299851E+00      135
 O   8.509116863534E+00  1.528061919789E+01  1.251434630468E+01  0.000000000000E+00 -5.122678022018E+00 -3.055202842785E+01  1.190216045101E+01 -2.502114993543E+01  8.092861723692E+00 -9.199273365644E+00      136
 Si  8.837369897230E+00  1.436424261071E+01  2.555022210415E+01  0.000000000000E+00  5.392581440445E+00 -3.109869771942E+01 -9.480187571480E+00 -5.531643090520E+01 -3.279029196802E+00  8.765090633227E+00      139
 Si  8.261834194232E+00  1.688855883033E+01  2.396180142953E+01  0.000000000000E+00  7.205898510951E+00 -1.010773826070E+01 -4.088721341138E+01 -1.434104706848E+01 -1.409757855069E+01  1.473005122913E+01      140
 O   8.074501999157E+00  1.546085118498E+01  2.474335239352E+01  0.000000000000E+00 -1.487219510906E+01  1.782806990450E+01  1.234178088369E+00  2.853181955286E+01  4.027495257459E-01 -2.847690116358E+01      142
 O   8.212045642165E+00  1.275093733293E+01  2.536587415258E+01  0.000000000000E+00  2.759930362414E-01  1.758818865773E+01  3.575043589371E+01  3.498878305294E+01  1.157398359388E+01  4.285375487163E-01      143
 O   7.377245502203E+00  1.803534663932E+01  2.468467849926E+01  0.000000000000E+00 -9.999220319228E-01  1.774011126766E+01 -7.198661104404E+00  2.428059476432E+01 -2.151386750123E+00 -2.444535762383E+00      148
 O   1.284467664645E+01  1.592984823117E+01  1.456832947256E+00  0.000000000000E+00  8.137775745584E+00 -4.341182628826E+00  1.574949025866E+01 -8.951223166696E+00 -7.265973969863E+00  1.009239361446E+01      150
 Ca  4.252162997833E+00  1.153128145473E+01  7.424862722890E+00  0.000000000000E+00 -4.561923901033E-01  5.677188407685E+00  5.826502473336E+00  3.655477905428E+00  3.336794113045E+00 -1.237131043770E+00      151
 Ca  1.291775568613E+01  2.183762039991E+01  2.431127683657E+00  0.000000000000E+00 -6.240471633368E+00  2.318128099853E+01 -6.486640648960E+00  1.023839351887E+00 -9.079202705508E-01 -1.054959189174E+01      152
 H   6.932807803264E+00  1.799590363484E+01  1.572258395987E+01  0.000000000000E+00 -6.234273082622E-01  5.563018790720E+01  1.970101466908E+01  4.860274414790E+01  8.687080226671E+00 -1.618267530441E+00      155
 H   1.267807817344E+01  1.263961499962E+01  3.361464580575E+01  0.000000000000E+00 -1.750152115562E+01 -1.009411956742E+01  3.644559687921E+01 -2.684498333137E+01  1.374579785795E+01 -1.744842446059E+01      156
 H   1.434621103429E+01  1.339408124742E+01  1.399061874314E+01  0.000000000000E+00 -3.811856430870E+01 -1.835424557077E+01  1.619546417016E+01 -1.917169586738E+01  1.660709587252E+01 -3.558871022918E+01      159
 H   1.653293070909E+01  2.084647152967E+00  1.105968337502E+01  0.000000000000E+00 -3.900266015732E+01  4.345980834812E+00 -8.088262837303E+00  2.077260297309E+01 -1.209100518628E+01 -4.799589804644E+00      160
 H   1.516171310383E+01  1.753551783002E+01  1.560038555303E+01  0.000000000000E+00  2.258066846631E+01 -3.524566739387E+01 -2.320771887260E+01 -3.135613135284E+01 -2.255513327826E+01  2.611602737717E+01      164
 H   1.765906401098E+01  5.960679157989E+00  4.450688846409E+00  0.000000000000E+00  5.571123507544E+01  1.062545861783E+01  3.378403125031E+00  7.933762060483E+00  1.340454008326E+01  1.880489235293E+01      168
 H   5.159473019594E+00  2.074241017648E+01  3.302438617435E+01  0.000000000000E+00  1.350151210919E+01 -3.706742293988E+01  6.660422521376E+00 -5.901574982076E+01  1.040572567094E+00  5.427955551040E+01      169
 Si  1.152776019089E+01  9.207494357635E-01  1.950456915280E+01  0.000000000000E+00  3.119772193036E+01 -1.832339331225E+02 -9.562677540202E+00 -3.878705158666E+01 -5.651816894936E+00 -6.235035429253E+01      177
 Si  1.062475133989E+01  3.571105292564E+00  1.851363798561E+01  0.000000000000E+00  2.579572345807E+01 -4.221018336928E-01  7.262154069046E+00 -3.620807262448E+00  4.167661765641E+00  8.444765938347E+00      178
 Si  8.011943825811E+00  4.047321330390E+00  1.993455529073E+01  0.000000000000E+00 -8.969809779359E+00 -5.336697174065E+00 -1.533797488826E+01 -2.962344248206E+01 -6.164521425947E+00 -4.385905965220E+00      179
 O   1.088569109104E+01  1.920213781763E+00  1.841415735657E+01  0.000000000000E+00 -4.059235863873E+00  7.151948680750E+00  2.922552675081E+00 -8.163786642025E+00  1.727692720453E+00  2.523219323788E+00      180
 O   1.125615598683E+01  7.742658085245E-01  2.105916914774E+01  0.000000000000E+00 -9.917408720954E+00  2.549526610641E+01  4.637754278369E+01  4.374041883791E+01  2.478886285574E+01  6.031200116597E+00      182
 O   1.110044983311E+01  3.922870721048E+00  1.693133947735E+01  0.000000000000E+00  7.459987679938E-01 -3.483215857800E+00  3.667401959039E+01 -1.446159432700E+01  2.404405836797E+01  2.355973652087E-01      184
 O   1.151484773280E+01  4.187198733634E+00  1.969185637147E+01  0.000000000000E+00 -5.105251887663E+00 -1.948624246691E+00 -3.271618094711E+01 -1.026064272819E+01 -1.913084449217E+01 -1.841827574838E+00      185
 O   9.030861868966E+00  3.584740530795E+00  1.856535502837E+01  0.000000000000E+00 -1.559851511498E+01  5.683077329968E+00  2.360086869342E+01  2.995497049745E+01  1.148031830429E+01 -6.407999551182E+00      187
 O   6.567390393744E+00  4.148798398474E+00  1.926195760201E+01  0.000000000000E+00 -4.289455286500E-01  4.042952597759E+00 -1.406195223685E+00  2.108467722325E+01 -4.794441559147E-01 -2.110171800650E-01      188
 Ca  1.434027847394E+01  2.574998480416E+00  2.121846519774E+01  0.000000000000E+00 -1.720011055506E+01 -1.162598841036E+01  8.188121638091E+00 -7.321667753524E+00  5.533856637343E+00 -1.767680475708E+00      190
 O   1.243160701040E+01  1.737530327282E+01  7.102765001594E+00  0.000000000000E+00 -2.960304161700E+00  1.136815094812E+01  1.002417249080E+01  4.647130666977E+00  1.754479741089E+01 -4.137532866530E+00      193
 O   6.121891007123E+00  1.145013842799E+01  1.346170122077E+01  0.000000000000E+00  2.926686722059E+00 -1.035442540600E+01  3.407877220775E+00 -1.217349309835E+01  1.549778335524E+00  5.473956995303E+00      194
 Si  1.841136490201E+01  1.560272779478E+00  1.937687310951E+01  0.000000000000E+00  1.380947814265E+01  1.315990516279E+01  3.955720449571E+01 -3.260247552454E+01  3.758615347056E+01 -1.589899010246E+00      196
 Si  1.621696806759E+01  3.718458577348E+00  1.966620196953E+01  0.000000000000E+00  1.069397961998E+01 -3.785024415394E+00 -2.960855131928E+01 -1.175729559259E+01 -2.441553951374E+01  2.467770793615E+00      197
 O   1.930767605467E+01  2.868561268249E+00  1.964139134466E+01  0.000000000000E+00  4.143267211514E+01  1.864133343740E+00  6.475935440124E-01  3.082602678773E+00  6.365906642496E-01  5.648035182363E+00      202
 O   1.704537701103E+01  2.277243324379E+00  1.927861434720E+01  0.000000000000E+00 -1.561830289313E+01  1.385522900577E+01  4.279563945582E+00  5.695510427133E+00  3.783818669824E+00  1.965742469505E+00      205
 O   1.602663858928E+01  4.090659583802E+00  2.120236848332E+01  0.000000000000E+00 -1.194973716161E+01 -2.126978385681E+00 -1.709987063158E+00 -1.104344941983E+01 -1.292560530449E+00 -3.050061875132E+00      206
 Ca  1.326264806132E+01  5.031282365279E+00  1.838402858682E+01  0.000000000000E+00  2.553566211321E+00 -2.180340234185E+00  2.550455815134E+00 -7.966843099658E+00  1.839955682853E+00  9.687139844318E-01      209
 O   2.219927177090E+01  1.939321966523E+01  1.476081123488E+01  0.000000000000E+00  7.572278816519E+00  6.130637802014E+00 -8.708127321142E+00  4.666228140919E+00 -1.309644042875E+01  6.615120890932E+00      210
 O   1.449786114943E+01  1.706569316373E+01  4.765335386430E+00  0.000000000000E+00  7.283019369999E+00 -1.296187266115E+00 -1.258514270295E+01 -3.668300975818E-01 -3.810323117446E+01  8.572973116023E+00      212
 Si  1.453290439011E+01  3.376152181258E+00  1.489229159521E+01  0.000000000000E+00  3.254499447378E+01  6.722557281786E-01  1.744520150052E+01  6.109586839023E+00  1.702420637229E+01  7.417194573003E+00      213
 Si  1.181568238271E+01  4.381192904710E+00  1.561703555104E+01  0.000000000000E+00  1.490273012352E+01  9.496762071381E+00 -1.623028307415E+01  3.389912412552E+01 -1.227965891215E+01  5.521779966256E+00      214
 Si  1.020476678777E+01  6.035409419919E+00  1.353039088532E+01  0.000000000000E+00 -4.380775712050E+00  3.525737040166E-01  3.073181980783E+01  7.904120001346E-01  2.317827007075E+01 -2.590923981795E+00      215
 O   1.292600944443E+01  3.647242200917E+00  1.458216382380E+01  0.000000000000E+00 -2.632444809677E+01  4.867986678215E-01  2.405484493843E+01  4.840066222976E+00  2.132284046561E+01 -7.513388769965E+00      216
 O   1.505744324152E+01  4.194321040017E+00  1.634609061867E+01  0.000000000000E+00 -1.803429115156E+01 -7.955499320332E+00 -4.999904366179E+01 -3.100413906475E+01 -4.605735888970E+01 -5.023535908819E+00      217
 O   1.505429362445E+01  3.967351820731E+00  1.345873461043E+01  0.000000000000E+00  2.373258053436E+00  2.253638711282E+00 -1.864376015168E+00  1.093012261686E+01 -2.085401397022E+00  6.402355085493E-01      218
 O   1.500160728744E+01  1.783614703672E+00  1.487382763345E+01  0.000000000000E+00 -3.203677286178E+01  1.578652276566E+01  2.069079176962E+01  2.088513485444E+01  2.086854441529E+01 -6.156876147199E+00      219
 O   1.284349863081E+01  5.826715401818E+00  1.625530866624E+01  0.000000000000E+00 -2.829626774328E+01  2.427505426546E+00 -1.513532001365E+01  6.772228824694E+00 -1.195858324584E+01 -1.283717963563E+01      220
 O   1.053048422920E+01  4.976931103914E+00  1.485548311765E+01  0.000000000000E+00 -5.233565078429E+00  3.695484996519E+00 -2.489528385112E+01  1.103053545068E+01 -1.764731526396E+01 -2.473494310069E+00      222
 O   1.149677152383E+01  6.365822743766E+00  1.279193542253E+01  0.000000000000E+00  1.489599218246E+01  2.974772099588E+00 -8.439338907410E+00  5.977717904873E+00 -7.584868749400E+00  8.247989066278E+00      223
 O   2.126049777610E+01  2.223446855258E+01  1.180019734068E+01  0.000000000000E+00  1.736783428537E+01  1.599910889123E+01  1.750169625476E+01  8.490989642726E+00  3.153292809939E+01  1.816347713545E+01      224
 Ca  1.536113708394E+01  8.697179012082E+00  6.943861873660E+00  0.000000000000E+00 -4.592663115278E+00 -3.151085228861E+00 -3.026371030391E+00 -2.515838819799E+00 -6.694905675048E+00 -2.600277117344E+00      225
 Ca  1.724767429889E+01  4.701038265854E+00  1.665564976269E+01  0.000000000000E+00 -5.312850620159E+00  3.300243569064E-01 -6.734973284742E+00  1.169267253516E+00 -6.974367693969E+00 -1.448074310387E+00      226
 Si  2.091902430235E+01  2.715243840733E+00  1.988911997983E+01  0.000000000000E+00  5.739041175803E+01  5.105696346923E+00 -3.855847238877E+01  1.435159457808E+01 -4.055511866689E+01  6.773006676976E+00      228
 Si  2.287323333821E+01  4.730798366380E+00  2.110990294654E+01  0.000000000000E+00 -7.105625100558E+01  9.020140222591E+00  3.292038355270E+01  4.024992610471E+01  3.567025469000E+01 -1.469633921920E+01      229
 O   2.141763201845E+01  1.158977740504E+00  2.062707540206E+01  0.000000000000E+00 -2.248492163730E+01  8.985242727830E+00 -1.411859286607E+01  2.319174892854E+01 -1.465970433180E+01  1.323623852387E+01      230
 O   2.146388597774E+01  3.797645639783E+00  2.106646703814E+01  0.000000000000E+00 -1.342013823079E+01 -3.027325336103E+00 -2.606287286502E+01 -1.936138514268E+01 -2.655454900977E+01 -2.453456375999E+00      236
 O   2.293522472016E+01  4.302010736125E+00  2.283933513425E+01  0.000000000000E+00  2.137060386400E+00  3.072630184280E+00 -5.589175036952E+01  1.564542133169E+01 -5.612640854879E+01  4.052010486227E-01      237
 H   1.456581444271E+01  1.680963569189E+01  3.738526153606E+00  0.000000000000E+00 -1.922194133375E+00  9.938482298861E+00  8.774855798946E+00  2.039848489305E+00  3.633865582244E+01 -2.218302535585E+00      243
 H   1.808332729171E+01  1.893567219809E+01  8.366214821573E+00  0.000000000000E+00 -1.513286191780E+01  3.229322926040E+01  1.155329621558E+00  1.426789027865E+01  2.497210999479E+00 -1.584613871507E+01      247
 H   1.365710174375E+01  9.784562419831E+00  9.764469294793E+00  0.000000000000E+00  1.534139787257E+01 -1.220179820037E+01  2.700797529875E+00 -1.217674115169E+01  3.777477868094E+00  1.099126797970E+01      248
 H   7.213596785204E+00  1.138762023310E+01  9.595575949948E+00  0.000000000000E+00  9.905430334216E+00 -8.488622760324E+00 -2.288725130682E+01 -7.152787214522E+00 -1.720578351005E+01  1.563703686944E+01      249