     8448
Lattice="     49.70      0.00      0.00      0.00     49.70      0.00      0.00      0.00     49.70" pbc="T T T" config_type=md Properties=species:S:1:pos:R:3:charge:R:1:forces:R:3:id:I:1
 Si  1.096259494338E+01  1.774624039438E+01  1.576010403689E+01  0.000000000000E+00 -1.131072750508E+01 -7.378695499735E+01 -1.446815192486E+01 -6.552881407444E+01 -1.006392399189E+01 -1.830979712169E+01        1
 Si  1.227915286590E+01  2.020269683686E+01  1.733579126600E+01  0.000000000000E+00  4.527256298667E+00 -1.454309322352E+00 -5.948513003635E+01 -1.247932543465E+00 -4.213404474919E+01  7.448623492487E+00        2
 Si  1.101250267947E+01  2.246763380035E+01  1.812144587788E+01  0.000000000000E+00 -1.996910357296E+01  2.182026455986E+01  2.634525620307E+01  1.759930515052E+01  1.601015760458E+01 -4.074083062288E+01        3
 O   1.138897829093E+01  1.915332185716E+01  1.629875350960E+01  0.000000000000E+00  1.863268796048E+01  8.025693138717E+01  2.703051049924E+01  6.829561743237E+01  1.888794115988E+01  3.133537183536E+01        4
 O   9.344654372649E+00  1.775273084362E+01  1.558165066575E+01  0.000000000000E+00 -2.133031234986E+00  5.112279411311E+00  1.406375162505E+00  4.487070332695E+00  8.434337345771E-01 -4.052277150730E+00        5
 O   1.142175535427E+01  1.700646510826E+01  1.434981354228E+01  0.000000000000E+00  4.180348124955E+00  1.891929832026E+01  8.646569529692E+00  1.596383501911E+01  6.882249830691E+00  6.224344885908E+00        6
 O   1.149503934530E+01  1.682617720382E+01  1.711302605234E+01  0.000000000000E+00 -1.344123126716E+01 -2.600952311847E+00  7.295626567029E+00 -2.645292756302E+00  4.900566047184E+00 -1.967496868388E+01        7
 O   1.247305784527E+01  2.162148466304E+01  1.606885371895E+01  0.000000000000E+00  2.825868257035E+01 -5.203049760492E+01  3.424738249758E+00 -3.866850348011E+01  2.658369977180E+00  4.898515499340E+01        8
 O   1.386053593899E+01  1.964889376881E+01  1.756376540089E+01  0.000000000000E+00 -1.970477711334E+01 -6.223816183648E+00 -3.925430613626E-01 -5.563348686907E+00 -3.097773789065E-01 -2.793377355265E+01        9
 O   1.159541909619E+01  2.102459421329E+01  1.852957335736E+01  0.000000000000E+00  1.606489154481E+01 -3.462539519525E+01  1.170038453208E+01 -3.051634641740E+01  7.321855696275E+00  2.912855697652E+01       11
 O   1.950982340244E+01  1.801057436830E+01  2.117973381373E+01  0.000000000000E+00  1.080273748557E+01 -1.584795487775E+01 -2.492366971407E+00 -1.863657754266E+01 -2.295856968454E+00  9.972591901608E+00       13
 Ca  3.776137557012E+00  1.571215047115E+01  1.708798489891E+01  0.000000000000E+00 -2.649578772795E+00  6.458376774424E-01  2.608706984170E+00  7.023904525066E-01  5.764773597611E-01 -1.102464614564E+01       14
 Ca  2.143817520143E+01  1.360080575320E+01  1.805923263585E+01  0.000000000000E+00 -3.572150984735E+01  2.305599837243E+01 -1.979643095330E-01  3.061389492763E+01 -2.350040910915E-01 -2.266243801443E+01       15
 O   6.307679960169E+00  4.148168926049E+00  1.629671544830E+01  0.000000000000E+00  5.640228652366E+00  2.222295126003E+00 -4.830393895639E+01  6.097316088794E+00 -1.869614700699E+01  3.701797958851E+00       16
 O   9.606663793375E+00  1.671360183916E+01  1.970695259886E+01  0.000000000000E+00  1.055497021967E+01  3.088127780613E+01 -3.669111294305E+01  3.641201243000E+01 -1.788603207322E+01  1.836345826919E+01       18
 Si  2.071386757018E+01  1.984068664810E+01  1.795697994926E+01  0.000000000000E+00 -6.180325126086E+01  2.476498242465E+01  1.862804599673E+01  2.241375516537E+01  2.148796061242E+01 -5.919797150125E+01       19
 Si  1.804436501345E+01  2.164151165151E+01  1.866546605122E+01  0.000000000000E+00  6.358858122962E+00 -4.600066133780E+01  7.439520322389E+00 -3.967485249462E+01  7.191967232634E+00  7.626497361131E+00       20
 O   1.897335253568E+01  2.024193740377E+01  1.832146155473E+01  0.000000000000E+00  1.068155460812E+01  3.138889863299E+01  4.182766289220E+00  2.841084270138E+01  4.331592168161E+00  1.139573827799E+01       22
 O   2.170327473119E+01  2.101663553995E+01  1.837139064729E+01  0.000000000000E+00  2.237295543884E+00  4.372928923455E+00 -2.158391541881E+01  3.822533124910E+00 -2.549843150705E+01  2.166512916753E+00       23
 O   2.051982389067E+01  1.951349360412E+01  1.636110383243E+01  0.000000000000E+00  1.751669328403E+01 -1.574954218679E+01  1.959925189809E+01 -1.320521585007E+01  2.458105525501E+01  1.665764210182E+01       24
 O   2.094401191004E+01  1.883660859827E+01  1.927668991746E+01  0.000000000000E+00  1.975274875441E+01 -1.190906330197E+01 -1.040171674923E+01 -1.218729578001E+01 -1.130140498258E+01  1.776521129882E+01       25
 O   1.862298257763E+01  2.257200684016E+01  1.989670157726E+01  0.000000000000E+00  1.372514592483E+01 -1.246858924093E+01  1.056374630657E+01 -1.099077281754E+01  9.887491283808E+00  1.663557845292E+01       26
 O   2.206781346975E+01  1.712038857099E+01  2.122548245807E+01  0.000000000000E+00 -8.767530562871E+00  4.884663843252E+00 -1.924977788122E+01  6.055899157227E+00 -2.001370326710E+01 -6.801921280066E+00       27
 O   1.819729880559E+01  2.283990451325E+01  1.754265638410E+01  0.000000000000E+00 -9.089326162897E+00 -5.913906132329E+00 -8.891565420661E+00 -4.542296711752E+00 -9.223373545401E+00 -1.140825041498E+01       29
 Ca  4.398168924345E+00  1.067154798042E+01  1.453261117308E+01  0.000000000000E+00  1.121378778698E+00  5.566490688585E+00  6.373364050755E+00  7.580497686393E+00  1.928843438919E+00  2.720870354674E+00       32
 Si  1.333600356098E+01  1.932435691833E+01  1.210563891105E+01  0.000000000000E+00 -2.679782513538E+01 -2.302293385272E+01  1.773913690195E+01 -1.442259243462E+01  1.954206586132E+01 -3.883102873982E+01       37
 Si  1.239556939924E+01  2.167440570117E+01  1.441165012382E+01  0.000000000000E+00 -9.298904747909E+00  9.324193124800E+00 -3.893909457580E+00  6.199801316549E+00 -3.349181009885E+00 -1.625969954192E+01       38
 O   1.272025123045E+01  2.034025892070E+01  1.349647760741E+01  0.000000000000E+00  1.010380574044E+01 -2.439616368819E+00  1.139188158715E+00 -1.618771315587E+00  1.073669738070E+00  1.615644385647E+01       40
 O   1.390386641671E+01  1.767021380351E+01  1.249140680907E+01  0.000000000000E+00  3.832218573132E+01  5.077609011843E+01  6.740071435651E+00  3.589457404965E+01  7.502201658532E+00  4.870308696840E+01       41
 O   1.454232731074E+01  2.015471556782E+01  1.155227997193E+01  0.000000000000E+00  1.339746034235E+01  4.767470093868E+00 -7.300652236489E+00  2.732618532713E+00 -9.190261546885E+00  1.856800474651E+01       42
 O   1.183789780676E+01  1.901858729275E+01  1.139400071411E+01  0.000000000000E+00  1.583086098630E+01  3.958177641039E-01  3.259446346242E+00  2.371336954443E-01  3.386430606910E+00  2.543362145054E+01       43
 O   1.315016408934E+01  2.314164367212E+01  1.395396333756E+01  0.000000000000E+00  8.501537248941E+00 -3.314948723086E+00  4.757385643507E+00 -1.998849934914E+00  4.483342856435E+00  1.496099549356E+01       44
 O   1.076608112123E+01  2.213023048923E+01  1.404122337012E+01  0.000000000000E+00  6.100158255936E+00 -1.630133809582E+01  1.349580380972E+01 -1.034289857698E+01  1.034788171812E+01  1.253918735187E+01       46
 O   8.350580546395E+00  2.112444249220E+01  1.487323441913E+01  0.000000000000E+00 -1.015728163193E+01 -3.890260149178E+01  4.598114423364E+00 -2.739042754453E+01  2.581612295739E+00 -2.569484965970E+01       47
 O   1.754769056649E+01  1.597814757897E+01  8.664692686423E+00  0.000000000000E+00 -1.583515340520E+01 -1.422613963449E+01  1.694127700500E+01 -7.714606930362E+00  3.430938608483E+01 -1.441878730909E+01       48
 Ca  7.188816707403E+00  2.098002108847E+01  1.307433129849E+01  0.000000000000E+00 -6.386484195960E-01 -4.604101711298E+00 -6.001895332962E+00 -2.869184489930E+00 -3.300094242730E+00 -1.863847397506E+00       49
 Si  2.090677225750E+01  2.072728363147E+01  2.289534279836E+01  0.000000000000E+00 -2.100938367178E+01  6.256402015788E+00 -7.028103852988E-01  6.910817229244E+00 -6.417679261262E-01 -2.082901410719E+01       51
 Si  1.981406806314E+01  2.277984699056E+01  2.105021350667E+01  0.000000000000E+00 -1.055999635117E+02 -5.505748001901E+00  8.062206471595E+00 -5.087706295921E+00  7.588764252518E+00 -1.214062151870E+02       52
 O   1.966135490649E+01  2.147484908621E+01  2.197537687566E+01  0.000000000000E+00  1.318346329666E+01 -1.337231124984E+01  1.398354591514E+01 -1.368398810321E+01  1.251106912270E+01  1.439945955280E+01       54
 O   2.001815985700E+01  1.951716803617E+01  2.375603274779E+01  0.000000000000E+00  3.937917602714E+01  1.379575777147E+01 -7.033090600224E+00  1.679200961903E+01 -5.926474905081E+00  3.839363863300E+01       55
 O   2.211033168397E+01  2.014794788905E+01  2.197490129370E+01  0.000000000000E+00 -2.139324084557E+01  8.241407438669E+00  1.788927059786E+01  8.988712695867E+00  1.799952141839E+01 -1.949450184173E+01       56
 O   2.131233193296E+01  2.200962436394E+01  2.387559409340E+01  0.000000000000E+00  9.786248922959E+00 -1.750135381954E+01  1.045600664691E+00 -1.898511364714E+01  9.333459242126E-01  1.010643337406E+01       57
 O   1.647424461987E+01  2.112541386707E+01  1.876856719392E+01  0.000000000000E+00  2.290039716820E+01  1.559471257099E+01 -5.872742187557E+00  1.385489593719E+01 -5.154841623636E+00  2.936586041190E+01       58
 O   1.580062741283E+01  1.521214129752E+01  1.272152329246E+01  0.000000000000E+00 -3.333451905053E+01 -1.352912001526E+00 -8.568259117825E+00 -1.131405579494E+00 -1.064211154474E+01 -3.209299229912E+01       59
 H   3.712090709676E+00  8.173024253190E+00  1.662440453565E+01  0.000000000000E+00 -1.187093067038E+00 -1.807360553434E+00 -1.201099490937E+01 -3.676276008886E+00 -2.761816421322E+00 -3.197985877808E+00       70
 H   1.375620827882E+01  1.868572331388E+01  1.777255464670E+01  0.000000000000E+00  5.627504865966E+00  1.337860516764E+01 -1.052146689373E+00  1.272479461696E+01 -8.143763958876E-01  7.644112152243E+00       73
 H   1.882493247969E+01  1.072465324049E+01  1.763367913327E+01  0.000000000000E+00  3.333383264627E+01  4.978988967206E+00  1.795252331067E+01  8.186548495978E+00  1.916531635906E+01  1.899044241957E+01       83
 Si  2.017375384310E+00  2.087070083275E+01  2.145819580013E+01  0.000000000000E+00  2.168317222612E+01 -1.009953765124E+01  4.796135672530E+01 -1.038383225115E+01  1.084089188972E+01 -2.300081724358E+01       89
 Si  2.671397740875E+00  2.051003863550E+01  1.856730561692E+01  0.000000000000E+00  3.032463954152E+00  2.452798058389E+01 -2.568557657892E+01  2.220466376298E+01 -3.910925901939E+00  9.024016277855E+00       90
 O   1.834124134189E+00  2.034741050605E+01  1.991400462255E+01  0.000000000000E+00  1.162314996608E+01 -2.877787162871E+01 -2.141682846801E+00 -2.816489442087E+01 -5.862127782545E+00 -3.527498659904E+01       92
 O   9.363549711947E-01  1.987944259876E+01  2.232060492321E+01  0.000000000000E+00  4.283108910640E+01  2.284591858246E+00 -8.971798451875E+00  2.565135919951E+00 -2.097129501127E+01  1.512819020224E+01       95
 O   2.095716025999E+00  1.973257068896E+01  1.720195610906E+01  0.000000000000E+00  6.482546762192E-01  1.092134930379E+01  1.704605191558E+01  9.520734745451E+00  2.777794443296E+00 -1.121303580274E+01       96
 O   4.141715502722E+00  2.009637471685E+01  1.897126829166E+01  0.000000000000E+00  9.213414839223E-01 -1.683808886914E+01 -2.314065031185E+01 -1.589539934223E+01 -5.063985827761E+00  4.317930519708E+00       97
 O   1.096789735571E+01  1.441868355545E+01  2.106740864109E+01  0.000000000000E+00  3.394844454919E+00 -1.041454026214E+01 -2.307873823932E+01 -1.521687986755E+01 -1.201501506049E+01  4.462950949296E+00       98
 O   3.356494455362E+00  1.218386152612E+01  2.106425335689E+01  0.000000000000E+00 -3.146490481400E-01 -1.754306027292E+00 -2.349494545687E+01 -3.032958520184E+00 -3.673695280228E+00 -1.183517088120E+01      101
 Ca  2.220397520050E+01  2.308287770506E+01  1.862280868757E+01  0.000000000000E+00  8.803290696888E+00  1.552830093856E+01 -5.674358615592E+00  1.252792573425E+01 -6.765537899954E+00  9.151752365217E+00      102
 O   1.580646318628E+01  4.628620599206E+00  1.186268167000E+01  0.000000000000E+00 -3.724983437745E+01  1.833711345044E+01 -3.551125316112E+01  4.815907331765E+01 -4.731706804622E+01 -1.093527981839E+01      105
 Si  5.702368214323E+00  1.570788159478E+01  2.015977172823E+01  0.000000000000E+00  3.193710626528E+00 -4.049647964359E+00 -9.988433271105E+00 -5.197389479195E+00 -2.825315939281E+00  8.797472643647E+00      107
 Si  8.483886086870E+00  1.679593926750E+01  2.076437540258E+01  0.000000000000E+00 -1.173508560805E+01 -6.097687394920E+01  4.030788511359E+01 -7.538409620276E+01  1.646895218740E+01 -2.323248840844E+01      108
 Si  7.480581971469E+00  1.952130265201E+01  2.026655374410E+01  0.000000000000E+00  5.950207119808E+00  8.479780865412E+01 -7.751821126723E+01  8.803507517434E+01 -2.861272523134E+01  1.552764136145E+01      109
 O   7.361125071615E+00  1.571431273612E+01  2.028646963957E+01  0.000000000000E+00 -4.499846041842E+00  7.188496008048E-01  6.659615085114E+00  9.280024425516E-01  2.416500280301E+00 -9.606138637499E+00      110
 O   5.424162926791E+00  1.606076539007E+01  1.861578333019E+01  0.000000000000E+00 -2.370588619038E+00  7.617877054530E+00 -2.098860438761E+01  8.829762793925E+00 -6.115542267819E+00 -7.019233780512E+00      111
 O   4.978574935819E+00  1.668428472814E+01  2.115821075481E+01  0.000000000000E+00 -1.642205288280E+00  1.528732577327E+01  1.462643725550E+01  1.938665431924E+01  3.441633830216E+00 -5.503386202866E+00      112
 O   5.075404373271E+00  1.419012740952E+01  2.039202404630E+01  0.000000000000E+00 -1.111471415824E+00 -2.465623040159E+01  1.856434876154E+01 -3.543241217855E+01  4.620511268393E+00 -3.107520079709E+00      113
 O   8.972901565353E+00  1.628995467990E+01  2.225348230369E+01  0.000000000000E+00  2.205094928149E+00 -1.117136086278E+01 -2.932195786483E+01 -1.526104192143E+01 -1.182300540805E+01  4.003264293362E+00      114
 O   1.128137835055E+01  1.374074032189E+01  3.475525607974E+01  0.000000000000E+00 -3.817326673449E+01  6.119378795232E-01  2.065363283152E+01  1.547810176854E+00  6.704063573901E+00 -4.649511160230E+01      115
 O   7.835519457091E+00  1.819749872432E+01  2.111723900426E+01  0.000000000000E+00 -6.096707577296E+00  3.976109113194E+01  4.098733210797E-01  4.614065247227E+01  1.520828732210E-01 -1.415921802861E+01      117
 O   5.984502472827E+00  2.022672604397E+01  2.035996204912E+01  0.000000000000E+00  1.034342623638E+01 -5.142776649537E+01  3.119923501552E+01 -5.176652770403E+01  9.170542589922E+00  3.495923843114E+01      118
 O   6.178421778265E+00  9.212408483534E+00  2.251274411283E+01  0.000000000000E+00  4.095258007860E+00  5.048099837032E+00 -6.137549595368E+01  1.233625062222E+01 -1.684395731375E+01  6.106282634603E+00      119
 Ca  2.345189361628E+01  1.897799928274E+01  2.065038607853E+01  0.000000000000E+00  1.484879665315E+01  2.361727702765E+00  4.450922196521E+00  2.569848810081E+00  5.054750717501E+00  1.201610653894E+01      120
 Ca  3.210420718437E+00  1.266187793305E+01  1.900641284450E+01  0.000000000000E+00 -3.557291979062E+00 -3.095302558382E+00 -2.152924654858E+01 -4.646277480664E+00 -3.567891995157E+00  5.497615938818E+00      121
 Si  8.388628380510E-01  1.724636964733E+01  1.391483001921E+01  0.000000000000E+00 -1.013710916862E+02  1.532752525046E+00  3.670498950946E+01  1.236665529248E+00 -1.407338669946E+02  7.827665892008E+01      125
 Si  2.652908879659E+00  1.906118050812E+01  1.580058578801E+01  0.000000000000E+00  3.962262925712E+00 -1.151790129030E+01  4.840221860755E+00 -9.547655632230E+00 -1.511392174789E+00  3.264488228771E+01      126
 Si  3.291741309309E+00  2.039130196462E+01  1.327583195786E+01  0.000000000000E+00  4.572373237883E+00 -7.352388148824E+01 -2.152943015079E+01 -4.786799279521E+01 -5.855853026596E+00  3.916513747516E+01      127
 O   1.391523764985E+00  1.866142375022E+01  1.486879872763E+01  0.000000000000E+00  2.194709193291E+01 -2.710840589947E+01 -2.625090860082E+00 -2.159907178259E+01  2.130258688818E+01 -2.909136742775E+01      128
 O   2.203933095438E+00  1.689865750411E+01  1.307890692803E+01  0.000000000000E+00  3.973837112700E+01 -1.679031540811E+01 -3.421804778950E+00 -1.299505433858E+01  5.358846092694E+00  1.182941560661E+01      129
 O   4.796785985389E-01  1.596869152886E+01  1.483548779978E+01  0.000000000000E+00  9.796298028293E+00 -1.123028380696E+00  9.159430911779E+00 -1.043333688957E+00  1.457445961988E+01 -1.885703365944E+01      131
 O   3.816995387730E+00  1.795125396133E+01  1.622878182253E+01  0.000000000000E+00 -4.918234034394E+00  9.650284595658E+00 -1.119936151145E+01  8.724313274470E+00 -2.634367003866E+00 -2.312888621160E+01      132
 O   2.723514606917E+00  4.843856811710E+00  9.548114370809E+00  0.000000000000E+00 -5.331415696207E-01 -6.089474737643E-01  2.472181737537E+01 -1.200345169424E+00  6.077548129589E+00 -2.090885211692E+00      133
 O   3.350561854951E+00  2.029604258777E+01  1.491682994495E+01  0.000000000000E+00 -1.242394229116E-01 -8.089704482779E+00 -4.865019909008E+00 -5.945629329101E+00 -5.077270162385E-01 -9.284359896716E+00      134
 O   1.944339958032E+00  2.053884217985E+01  1.246321371803E+01  0.000000000000E+00  2.696863637574E+01  1.714891668484E+00 -1.687158924650E+01  1.040616660882E+00 -1.927546610596E+01 -4.316958569690E+01      135
 O   8.333388019544E+00  1.553584774370E+01  1.193602009463E+01  0.000000000000E+00  1.159258343640E+01 -2.469773323503E+01  6.440878667955E+00 -1.897499544591E+01  4.496837362987E+00  2.161193152193E+01      136
 Si  8.616472153503E+00  1.402797105712E+01  2.584551720526E+01  0.000000000000E+00  1.037903032077E+01  7.760224347971E+00 -3.466172756382E+01  1.429764939530E+01 -1.155565230032E+01  1.689748824658E+01      139
 Si  8.910803757759E+00  1.648069358152E+01  2.381950569303E+01  0.000000000000E+00 -1.274572807376E+01  7.762625994901E+00  4.909265690942E+01  1.121930416119E+01  1.836541183115E+01 -2.357345583715E+01      140
 O   8.139290600087E+00  1.533920253874E+01  2.480232516920E+01  0.000000000000E+00 -1.676393806762E+00 -2.656693366489E+01  3.033986784724E+01 -4.295671341720E+01  9.956526232614E+00 -3.159310239685E+00      142
 O   7.621484119992E+00  1.269420860996E+01  2.577498332109E+01  0.000000000000E+00  1.571519162404E+00  1.842908116652E+01 -3.361864746032E+01  3.741936770422E+01 -9.940801301890E+00  2.617494410278E+00      143
 O   8.123704224179E+00  1.791275234828E+01  2.397524053839E+01  0.000000000000E+00 -9.693956279886E+00  6.291855201896E+00 -1.053210740013E+01  8.421304496660E+00 -3.568670155319E+00 -2.137515514165E+01      148
 O   1.309025756173E+01  1.621538243488E+01  8.207099904245E-01  0.000000000000E+00  8.076583370942E+00 -2.185376182455E+00  8.256106255828E+01 -1.896068515022E+01  1.442810726170E+01  1.000476022030E+01      150
 Ca  4.842451621427E+00  1.157021309392E+01  7.578691369769E+00  0.000000000000E+00  4.705228174785E-01 -6.792634517618E+00 -1.217079791994E+01 -4.449294077714E+00 -7.776606441127E+00  1.124234104826E+00      151
 Ca  1.217105024356E+01  2.162198359214E+01  1.197981972685E+00  0.000000000000E+00  1.255460208882E+00  1.716609184820E+01 -3.208563482697E+01  7.546490130269E+00 -3.256842768862E+00  2.230336700105E+00      152
 H   6.892594428624E+00  1.743910809334E+01  1.565425303861E+01  0.000000000000E+00 -9.587834068835E+00  4.857254101856E+01  9.913316965372E+00  4.360124633455E+01  4.364850441359E+00 -2.425839448975E+01      155
 H   1.052593163900E+01  1.345502330226E+01  3.546148636205E+01  0.000000000000E+00  2.958756682098E+01  7.430583505742E+00 -5.232493184745E+01  1.958372941701E+01 -1.553145996246E+01  3.782101334938E+01      156
 H   1.646529166637E+01  1.460831184316E+01  1.230418775122E+01  0.000000000000E+00 -2.073304974153E+01  7.946983025187E+00 -9.560048183639E-01  6.693529837497E+00 -1.279312254257E+00 -1.839474588250E+01      159
 H   1.618552460472E+01  4.038676803852E+00  1.243460938994E+01  0.000000000000E+00  2.696426905959E+01 -1.219419934335E+01  3.768207388878E+01 -3.972552971167E+01  4.904891781943E+01  6.866933175477E+00      160
 H   1.682357748904E+01  1.662399578874E+01  1.716093584562E+01  0.000000000000E+00  1.336409604044E+01  1.942733791688E+01 -1.105605729153E+01  2.005482339381E+01 -1.083871172532E+01  1.320555490896E+01      164
 H   2.101965439775E+01  7.883434699926E+00  5.911473379607E+00  0.000000000000E+00 -5.407813000248E+01 -1.032315770416E+01 -9.274490640677E+00 -7.740924392028E+00 -3.297766486689E+01 -2.028203692132E+01      168
 H   4.846763646325E+00  2.085560190503E+01  3.278484454517E+01  0.000000000000E+00 -3.701997483155E+00  1.444570890772E+01 -4.483601288476E+01  2.270854243580E+01 -6.628354055382E+00 -1.592967831651E+01      169
 Si  1.281547754364E+01  6.710894122044E-01  1.989816097078E+01  0.000000000000E+00  4.149753573039E+00 -1.656008031647E+02  1.320995770916E+01  3.361027362424E+01  8.507917722783E+00 -1.280366024723E+02      177
 Si  1.121080615157E+01  3.767707046403E+00  1.932422210740E+01  0.000000000000E+00  6.501730369973E+00 -4.358527460223E+00  1.267671261420E+01 -2.767213884222E+01  7.354302127515E+00  1.833559597349E+00      178
 Si  8.157830227778E+00  3.987175366035E+00  1.989684379728E+01  0.000000000000E+00  9.915511478373E+00  6.406715935102E+00  3.654597564551E+01  2.529086676405E+01  1.498407827202E+01  5.426145105287E+00      179
 O   1.223599942796E+01  2.140772496335E+00  1.923919580809E+01  0.000000000000E+00 -4.491326037048E+00  3.410114697898E+00 -9.241826344798E+00  2.651433680475E+01 -5.877739537363E+00 -4.812876495317E-01      180
 O   1.242549528866E+01  1.070360184605E+00  2.162952194227E+01  0.000000000000E+00  5.676477444981E+00  6.943196761999E-01 -4.835641337876E+01 -2.621543055823E+01 -2.777927261721E+01 -1.324949473554E+01      182
 O   1.167502655519E+01  4.612729357478E+00  1.797316398218E+01  0.000000000000E+00 -2.378668179101E+00 -1.876322215853E+00 -1.744343330027E+01 -7.310952855766E+00 -1.133092354781E+01 -9.397967952857E-01      184
 O   1.150187130527E+01  4.692972296575E+00  2.057582805231E+01  0.000000000000E+00  6.479999702332E+00 -2.507556215444E+00 -9.771730702456E-01 -1.099410826655E+01 -5.462389590528E-01  2.643957515932E+00      185
 O   9.570753245686E+00  3.483120290334E+00  1.915166337101E+01  0.000000000000E+00 -1.231481651099E-01 -2.469074756442E+00 -4.781364937431E+00 -1.393460998757E+01 -2.389414595862E+00  8.115835704460E-01      187
 O   6.980027427018E+00  4.500809466774E+00  1.899735471907E+01  0.000000000000E+00 -6.512377049794E+00 -1.603043019605E+00 -9.395490117308E-01 -1.251820581526E+01 -3.452100551835E-01 -4.046340596174E+00      188
 Ca  1.100728165258E+01  5.001129690513E+00  2.284931281551E+01  0.000000000000E+00  7.618340922862E+00 -2.970327843312E-01 -1.399298851963E+01 -1.357092382251E+00 -6.740892692944E+00  3.461373314895E+00      190
 O   1.555151974409E+01  1.960616304362E+01  8.386169993751E+00  0.000000000000E+00  7.179921960680E+00  7.245582977307E+00  1.150717466312E+01  3.099162769194E+00  2.133918750820E+01  9.051894793434E+00      193
 O   4.473426763318E+00  1.248251093833E+01  1.306112748999E+01  0.000000000000E+00 -1.683916833172E+01 -2.042453852155E+01 -2.619906061424E+00 -2.137130124478E+01 -8.973159401079E-01 -4.698749169577E+01      194
 Si  1.831830677605E+01  1.598152627074E+00  1.973402613646E+01  0.000000000000E+00 -2.335365535260E+01 -1.700477851765E+00  5.001329293414E+01 -3.722190642193E+01  4.642533847443E+01 -5.245184930123E+00      196
 Si  1.662451513427E+01  4.405897368636E+00  1.939718926583E+01  0.000000000000E+00 -1.142061443163E+01 -9.633950810200E+00  1.307715603526E+01 -4.241396283387E+01  1.120788045329E+01 -3.026738203560E+00      197
 O   1.992330791237E+01  1.462290345388E+00  2.033170356181E+01  0.000000000000E+00 -4.463872348624E+00  2.204171693940E+01 -6.807625513152E+00  1.314624496866E+01 -6.670883177018E+00 -7.854941462782E+00      202
 O   1.760243451416E+01  3.023328103528E+00  1.990656469757E+01  0.000000000000E+00  7.914050179336E+00  2.096798295634E+00 -1.805597037998E+01  9.836387070344E+00 -1.596604140553E+01  1.057756497225E+00      205
 O   1.562156755653E+01  4.874244531362E+00  2.057606739404E+01  0.000000000000E+00  9.481697349252E+00  4.298036466390E-02 -2.762615633493E+01  1.814367076282E-01 -2.097406949776E+01  2.958481041380E+00      206
 Ca  1.397839154011E+01  4.910255355528E+00  1.794361517819E+01  0.000000000000E+00  8.277007560848E+00  3.139762174191E+00  5.183590955949E+00  1.147367705455E+01  4.038108443950E+00  2.907503383832E+00      209
 O   2.327483061726E+01  1.896603186886E+01  1.497436525838E+01  0.000000000000E+00  6.485365960086E+01  1.272977067760E+01  1.389699052982E+01  1.005061243700E+01  2.160025450763E+01  5.284749844280E+01      210
 O   1.448951353554E+01  1.778472822459E+01  4.928148714002E+00  0.000000000000E+00 -4.186198627754E+00  6.510131656381E-01  1.363496063370E+00  1.803957673416E-01  4.008887680220E+00 -5.138226670353E+00      212
 Si  1.313751441709E+01  3.591587430732E+00  1.456820780231E+01  0.000000000000E+00  2.644779923739E+01 -6.613593168198E+00  8.821881450658E+00 -2.033216572034E+01  7.955514934756E+00  7.653946911202E+00      213
 Si  1.130861068388E+01  5.145324866160E+00  1.640485622787E+01  0.000000000000E+00 -2.470440125197E+01  1.546411481128E+01  2.870392617965E+01  4.930428821680E+01  1.978691685900E+01 -1.124029941596E+01      214
 Si  9.287703601895E+00  6.162633416508E+00  1.465587761728E+01  0.000000000000E+00 -1.287476153446E+01 -4.005759692928E+00  4.322885754206E+00 -9.526434537959E+00  2.739493508227E+00 -8.542739848593E+00      215
 O   1.178877089547E+01  4.153926566632E+00  1.530286747250E+01  0.000000000000E+00  9.838921912634E-01 -2.250182510473E+00 -1.445227119692E+01 -8.850594492278E+00 -1.113350255211E+01  3.986459237544E-01      216
 O   1.423891750753E+01  3.672391412892E+00  1.589717405521E+01  0.000000000000E+00 -1.388110887396E+01  2.864134434052E-01 -1.373446646922E+01  2.189736881484E+00 -1.230180498660E+01 -3.544992890155E+00      217
 O   1.351386270090E+01  4.291377171519E+00  1.319483890320E+01  0.000000000000E+00 -8.533216560665E-01  2.230321117107E+00  6.967117278355E+00  1.114077645417E+01  7.135567702754E+00 -9.246365717598E-02      218
 O   1.291134198080E+01  2.025059375697E+00  1.420191285320E+01  0.000000000000E+00 -6.776479884984E+00  1.266562545543E+01  1.296776650729E+01 -2.916662206704E+00  1.178934625451E+01 -7.892826915894E+00      219
 O   1.190267386571E+01  6.803245296624E+00  1.653558598789E+01  0.000000000000E+00 -6.896075119840E+00 -1.597993093501E+01 -5.449054452151E+00 -3.883992279207E+01 -3.922347721329E+00 -3.941609352113E+00      220
 O   9.557501845470E+00  5.080711997957E+00  1.601581612270E+01  0.000000000000E+00  1.841930034399E+01  5.634206606959E+00  8.625060334812E-01  1.776058494373E+01  5.147038991690E-01  9.791592171758E+00      222
 O   1.058292329182E+01  6.457839489925E+00  1.384225943237E+01  0.000000000000E+00  5.092091198079E+00  1.702432705126E+00 -2.467057048567E+00  3.649132996767E+00 -1.886157070607E+00  3.107261265955E+00      223
 O   2.135667787730E+01  2.022775304719E+01  1.319078666016E+01  0.000000000000E+00  1.190236629067E+01 -1.037089132182E+01  1.932662070894E+01 -6.762996096635E+00  3.129096266746E+01  1.127320116865E+01      224
 Ca  1.554229213712E+01  7.356617078620E+00  6.261002362773E+00  0.000000000000E+00  8.735067042788E+00  3.894101469811E+00 -6.150135869552E+00  3.314156254540E+00 -1.526707751076E+01  4.134560258098E+00      225
 Ca  1.634511445033E+01  4.361409121288E+00  1.587123841410E+01  0.000000000000E+00  2.738367172915E+00 -1.460489391145E+00 -1.773673434696E+00 -5.314744543221E+00 -1.826630949093E+00  7.306855881418E-01      226
 Si  2.124584766772E+01  2.314180741509E+00  1.984599849559E+01  0.000000000000E+00  2.645570130380E+01  1.173829113928E+00 -4.500383252469E+01  4.582797273012E+00 -4.817820431135E+01  7.718895231756E+00      228
 Si  2.250013188078E+01  4.673478614527E+00  2.105630482428E+01  0.000000000000E+00  6.463774485650E+01  1.192276682449E+01  2.963791276350E+01  5.371789052912E+01  3.167017914182E+01  1.342583767414E+01      229
 O   2.257844875273E+01  1.530294443158E+00  2.051291457042E+01  0.000000000000E+00 -6.874714883890E+01  4.507148238740E+01 -1.251009148909E+01  6.153301164764E+01 -1.376978676573E+01 -8.267460654377E+00      230
 O   2.126672103591E+01  3.914538752943E+00  2.035069854675E+01  0.000000000000E+00 -1.912764056074E+01 -1.490559843620E+00  1.184481948786E+01 -1.055900955286E+01  1.237797666701E+01 -3.427762123642E+00      236
 O   2.267017004216E+01  4.085804444998E+00  2.274407696360E+01  0.000000000000E+00 -6.325138704255E-01 -1.713187543184E+00 -2.631147466292E+01 -8.370956005089E+00 -2.622597547585E+01 -1.104022141512E-01      237
 H   1.355390771557E+01  1.762229679421E+01  5.218656476817E+00  0.000000000000E+00  1.646862362274E+01  1.017857564643E+00 -2.571754519952E+00  3.014277329584E-01 -6.679367301790E+00  2.141190418013E+01      243
 H   1.951666827513E+01  1.709609185597E+01  6.070714337669E+00  0.000000000000E+00 -1.603206012054E+01  2.451922188212E+00  4.469025993277E+00  8.706620968247E-01  1.436741921498E+01 -1.404366609082E+01      247
 H   1.346342067564E+01  7.476368071343E+00  6.331408675265E+00  0.000000000000E+00 -3.531764233613E+01 -1.099856240480E+01 -2.227746352527E+00 -9.314200793850E+00 -4.737190069544E+00 -1.961222930476E+01      248
 H   5.678068308348E+00  9.439642426200E+00  1.050049503557E+01  0.000000000000E+00 -1.204814604750E+01 -1.400173131006E+01 -2.130211262755E+01 -1.557528383730E+01 -1.151896650602E+01 -2.002973272087E+01      249