     8448
Lattice="     49.70      0.00      0.00      0.00     49.70      0.00      0.00      0.00     49.70" pbc="T T T" config_type=md Properties=species:S:1:pos:R:3:charge:R:1:forces:R:3:id:I:1
 Si  1.076653875619E+01  1.771416703006E+01  1.580740117619E+01  0.000000000000E+00 -1.014278126431E+01 -4.596778248376E+01 -3.843460235094E+01 -4.101977686376E+01 -2.617809412046E+01 -1.668789994018E+01        1
 Si  1.251467843227E+01  2.015083851493E+01  1.677680916276E+01  0.000000000000E+00  2.595354393513E+01 -1.824428889887E+01  4.214592596227E+01 -1.518948965523E+01  3.143879777917E+01  4.178978114042E+01        2
 Si  1.088068500797E+01  2.262165467080E+01  1.791695434778E+01  0.000000000000E+00 -1.881926591808E+01 -1.489737017005E+01 -4.888803758929E+00 -1.179911483590E+01 -2.968893749135E+00 -3.912648279450E+01        3
 O   1.139600658741E+01  1.889980117280E+01  1.659489941748E+01  0.000000000000E+00  2.387028689514E+01  5.220714635679E+01  2.564956215494E+01  4.584028872807E+01  1.761400126197E+01  3.958787429577E+01        4
 O   9.529306325640E+00  1.850572042041E+01  1.507219359339E+01  0.000000000000E+00  5.530323096662E+00 -2.689004181350E+01 -1.465447542135E+01 -2.190089911336E+01 -9.265206452286E+00  1.073977575744E+01        5
 O   1.175199791070E+01  1.702975432404E+01  1.460070461129E+01  0.000000000000E+00  4.201155224637E+00  4.180718480176E+01 -9.417777936169E+00  3.584399071798E+01 -7.580299004455E+00  6.087870496262E+00        6
 O   1.011898467800E+01  1.662174667785E+01  1.686764214179E+01  0.000000000000E+00  1.945674096138E+00  3.253266994899E+00  3.662923855148E+01  3.301394524004E+00  2.197406730315E+01  3.196022424462E+00        7
 O   1.363465708683E+01  2.071117253209E+01  1.555136702037E+01  0.000000000000E+00 -1.852100485744E+01 -2.324260105232E+01  1.191589124628E+01 -1.745213695231E+01  1.044725462489E+01 -2.813358081743E+01        8
 O   1.354194879685E+01  1.934054434067E+01  1.802425628222E+01  0.000000000000E+00 -1.452159935907E+01  2.330757702688E+01 -3.336484633525E+01  2.172129875200E+01 -2.506761075809E+01 -2.073967643173E+01        9
 O   1.180867427953E+01  2.134567002554E+01  1.765886881025E+01  0.000000000000E+00  5.844490916693E+00 -4.090252715678E+01 -1.926525422215E+01 -3.383788656927E+01 -1.288288137062E+01  1.056465540685E+01       11
 O   2.002852848368E+01  1.764390677621E+01  2.170933690489E+01  0.000000000000E+00  1.658199940082E+01  2.428473664827E+00 -2.584441739437E+01  2.988031711065E+00 -2.384345741167E+01  1.460772576625E+01       13
 Ca  3.232635645101E+00  1.546692612491E+01  1.711647557229E+01  0.000000000000E+00  1.945989618876E+00  1.122740839862E+00  1.639586663901E+00  1.242481279364E+00  3.096540681273E-01  9.310816615104E+00       14
 Ca  2.175948106888E+01  1.309409922971E+01  1.775489712784E+01  0.000000000000E+00  3.774170250352E+00  2.012584333125E+01  8.818202497255E+00  2.728956545146E+01  1.080713162791E+01  2.271164446041E+00       15
 O   6.306976075046E+00  4.749439407173E+00  1.641725345588E+01  0.000000000000E+00  3.497104601991E+00  1.743531947174E+00 -8.208705011504E+00  6.026817784421E+00 -3.153518111529E+00  2.633478581506E+00       16
 O   9.708865315421E+00  1.605244516808E+01  2.039414670774E+01  0.000000000000E+00  2.103497517463E+00  4.660886139323E+00 -2.034381172803E+01  5.921515053821E+00 -9.684902776286E+00  3.477881035865E+00       18
 Si  2.048636439117E+01  1.995671516274E+01  1.806979501256E+01  0.000000000000E+00 -1.041865060244E+01 -2.392993005440E+01  1.148817165445E+01 -2.166733990147E+01  1.302454568731E+01 -1.014928947289E+01       19
 Si  1.812868160856E+01  2.173166099510E+01  1.854408995967E+01  0.000000000000E+00  5.053509289514E+00 -1.576835616851E+01  2.403731871045E+01 -1.345547472744E+01  2.349885589279E+01  6.057867476888E+00       20
 O   1.894002412041E+01  2.026352768329E+01  1.871690708493E+01  0.000000000000E+00  2.605101498168E+01  2.047814894472E+01 -1.031901101600E+01  1.891514730605E+01 -1.044201996916E+01  2.787142507862E+01       22
 O   2.168942048766E+01  2.100475122115E+01  1.776818309296E+01  0.000000000000E+00 -3.764072771424E+00  1.776268339344E+01  2.770671212443E+01  1.502567716390E+01  3.382127066416E+01 -3.645252402527E+00       23
 O   2.031233244297E+01  1.959172754884E+01  1.652012313172E+01  0.000000000000E+00 -4.672764224304E+00 -2.813976512448E+01 -1.122545566658E+01 -2.372799354192E+01 -1.380226923888E+01 -4.506992185144E+00       24
 O   2.096839617669E+01  1.874288913228E+01  1.916492265346E+01  0.000000000000E+00 -1.662303349974E+00  4.715369103482E+01 -2.203563982563E+01  4.821545041053E+01 -2.410925596861E+01 -1.485872697666E+00       25
 O   1.834228561762E+01  2.252769722789E+01  2.002286135255E+01  0.000000000000E+00  1.779872882599E+01  1.585126355976E+01  1.735041335312E+00  1.408877477841E+01  1.589414378412E+00  2.186010960641E+01       26
 O   2.241107777441E+01  1.720063141366E+01  2.064216688562E+01  0.000000000000E+00 -1.633086247565E+01 -4.916889935314E+00  6.899841281439E+00 -5.900670746446E+00  7.491116627739E+00 -1.253403111347E+01       27
 O   1.868617427959E+01  2.242024980432E+01  1.714670632669E+01  0.000000000000E+00  1.686701897730E+01  4.220457126544E+00 -1.703330798255E+01  3.227749001231E+00 -1.856259478967E+01  2.023757101197E+01       29
 Ca  4.775227938576E+00  1.105311517024E+01  1.451374301416E+01  0.000000000000E+00  1.232392561102E-01 -3.196693746351E+00 -7.373090687393E+00 -4.197548909506E+00 -2.425851733061E+00  2.852591978441E-01       32
 Si  1.279918916022E+01  1.869493967581E+01  1.198890634263E+01  0.000000000000E+00  6.217770771658E+01  3.954210197586E+01  3.522329206505E-01  2.535801481043E+01  3.760389522631E-01  9.081891676033E+01       37
 Si  1.283865365746E+01  2.121351896051E+01  1.412452793928E+01  0.000000000000E+00  3.015213831261E+00 -3.863374126878E+01 -9.148263205490E+00 -2.572337757662E+01 -8.315420052797E+00  4.982087490323E+00       38
 O   1.249110010278E+01  1.972260176898E+01  1.322552419747E+01  0.000000000000E+00  1.863090936852E-01  3.960090863524E+01  1.461394908040E+01  2.655546066043E+01  1.380242462489E+01  2.941694510856E-01       40
 O   1.387423167546E+01  1.770041356987E+01  1.258063896086E+01  0.000000000000E+00  2.679755525478E+00 -1.225129688387E+01  5.902168610580E+00 -8.707657721655E+00  6.509053709084E+00  3.418768129049E+00       41
 O   1.346222144524E+01  1.917647348376E+01  1.045747759347E+01  0.000000000000E+00 -1.687888075368E+01 -3.868397090693E+00  7.460550328649E+00 -2.109547197656E+00  9.604187982225E+00 -2.404338767751E+01       42
 O   1.148789514117E+01  1.823787029737E+01  1.143304613228E+01  0.000000000000E+00 -6.552355209331E+01 -3.456106824295E+01 -1.550864665383E+01 -2.166581301214E+01 -1.558304798908E+01 -1.040234115837E+02       43
 O   1.356763800466E+01  2.222444388988E+01  1.319847546003E+01  0.000000000000E+00  4.662031058891E+00  2.014196963618E+01 -4.459574302717E+00  1.196175226147E+01 -4.584308996702E+00  7.636631198857E+00       44
 O   1.149993765609E+01  2.183252095281E+01  1.470463825368E+01  0.000000000000E+00 -7.073766221783E+00 -3.191165802905E+00  1.348536481847E+01 -2.149313807630E+00  1.054639032981E+01 -1.342947708683E+01       46
 O   9.047435827803E+00  2.104283597655E+01  1.549890161707E+01  0.000000000000E+00 -4.764770169264E+00  5.266786240838E+00 -1.163916441073E+01  3.879201542788E+00 -6.794326184983E+00 -1.108206557593E+01       47
 O   1.662844315039E+01  1.532138146622E+01  1.009784728092E+01  0.000000000000E+00 -1.896585062314E+01  5.511135072415E+00  1.231455051652E+00  3.632218180096E+00  2.027875818379E+00 -1.747505942681E+01       48
 Ca  7.586254969846E+00  2.143658325417E+01  1.323797242584E+01  0.000000000000E+00  4.579163946703E+00  2.130788363650E+00  3.090115196695E-02  1.315849511503E+00  1.770845339016E-02  1.293940548639E+01       49
 Si  2.070814633921E+01  2.092467814296E+01  2.325346135353E+01  0.000000000000E+00 -1.211714787512E+01  4.076402519835E+00 -1.786360461974E+01  4.530080119217E+00 -1.590826126860E+01 -1.224384911833E+01       51
 Si  1.950801972069E+01  2.282958797123E+01  2.128311891236E+01  0.000000000000E+00 -4.905494283024E+01  1.132817751850E+01 -1.682522981657E+01  1.056081036112E+01 -1.542193681380E+01 -5.740737136833E+01       52
 O   1.941121968015E+01  2.145633876084E+01  2.215565753504E+01  0.000000000000E+00  3.143929451583E+01  1.358560903379E+01  3.838193657728E+01  1.402839992940E+01  3.362753741219E+01  3.475166242248E+01       54
 O   1.995949935613E+01  1.963532828954E+01  2.393112653590E+01  0.000000000000E+00 -9.402089206426E+00 -2.321064181647E+01  9.654397085518E+00 -2.828864371906E+01  8.052146317606E+00 -9.249385712622E+00       55
 O   2.185373548384E+01  2.025890059499E+01  2.235127970385E+01  0.000000000000E+00  1.225752324232E+01 -1.136131656644E+01 -1.193047773873E+01 -1.253473569258E+01 -1.166490277750E+01  1.136299764819E+01       56
 O   2.151672390217E+01  2.168492788795E+01  2.444518027179E+01  0.000000000000E+00 -2.031058486057E+01  1.024585409240E+01 -3.427637683223E+00  1.155003842399E+01 -3.017017377111E+00 -2.046936002274E+01       57
 O   1.658007940961E+01  2.144220481139E+01  1.838466962210E+01  0.000000000000E+00 -4.289101770089E+00  4.927027457910E+00 -6.429346461592E+00  4.224461655389E+00 -5.798258934005E+00 -5.546885291625E+00       58
 O   1.627512416862E+01  1.675136689312E+01  1.326586036787E+01  0.000000000000E+00  1.959043011429E+01  8.363150785765E+00  8.655817772864E+00  6.623005230989E+00  1.061932698881E+01  2.016368532975E+01       59
 H   3.425754522215E+00  8.720072781165E+00  1.487334564157E+01  0.000000000000E+00  5.234270685388E-01 -1.817520064192E+01  1.291465823120E+01 -3.100043406014E+01  2.970281690222E+00  1.409392227999E+00       70
 H   1.324120162909E+01  1.856312641475E+01  1.854170885873E+01  0.000000000000E+00 -4.238613735025E-01  5.145503602729E+00 -5.539502093064E+00  5.139566881229E+00 -3.955927940510E+00 -5.942204098282E-01       73
 H   1.794195401049E+01  9.510399766933E+00  1.871902077803E+01  0.000000000000E+00  2.477802745994E+01  9.937925194383E+00 -2.477804332509E+01  1.956050563205E+01 -2.374945351471E+01  1.313396224527E+01       83
 Si  2.089554258656E+00  2.043774682559E+01  2.131575883136E+01  0.000000000000E+00  1.092849358860E+01  3.804459669925E+01  1.119860467028E+01  3.967900449096E+01  5.021817117729E+00 -1.584458042399E+01       89
 Si  3.061835272947E+00  2.026060996530E+01  1.843505225055E+01  0.000000000000E+00 -4.944979941389E-01  4.929978584500E+01  5.330647481256E-01  4.485768836920E+01 -8.425979581027E-01 -1.669836724902E+01       90
 O   2.326360251369E+00  1.975222955169E+01  1.981023317305E+01  0.000000000000E+00  3.707508335720E+00 -9.686390494404E+00  1.172343896062E+00 -9.714835168209E+00 -1.606517666089E+00 -5.872527905000E+00       92
 O   1.092256072520E+00  1.965720694480E+01  2.229909725232E+01  0.000000000000E+00  4.415145964622E+01  1.636286017831E+01 -9.592895430962E+00  1.856199670009E+01 -7.953157616788E+00  4.009235919237E-01       95
 O   2.276482686328E+00  1.979059655361E+01  1.713168267684E+01  0.000000000000E+00 -9.081586078221E-01  1.440711242752E+01  2.074088552096E+01  1.247148249064E+01  3.339164067229E+00 -7.350154600422E+00       96
 O   4.622004950709E+00  2.002696049763E+01  1.853444119044E+01  0.000000000000E+00  2.195606186857E+00 -6.429115880505E+00 -1.020716217997E+00 -5.949982784848E+00 -2.545399326787E-01  9.513472798380E+00       97
 O   1.195691537735E+01  1.413886515985E+01  2.129783507783E+01  0.000000000000E+00 -9.172130975574E+00  1.651458361081E+01 -9.887308535931E+00  2.487645749116E+01 -5.550879281480E+00 -1.084590122112E+01       98
 O   3.387848926120E+00  1.248189999341E+01  2.030824641015E+01  0.000000000000E+00 -9.434412928300E-01 -2.484794550329E+00  2.014266762374E+01 -4.042799576453E+00  3.461140270162E+00 -3.164316676346E+00      101
 Ca  2.167597269151E+01  2.313697185045E+01  1.849070645412E+01  0.000000000000E+00  1.509026597200E+01  1.055465712605E+01 -7.780813150616E+00  8.435117088925E+00 -9.121160069738E+00  1.610737677052E+01      102
 O   1.540885114846E+01  4.261349027123E+00  1.186607342889E+01  0.000000000000E+00  4.497901924828E+01 -2.743748177449E+00 -3.672377468466E+01 -7.640190262936E+00 -4.768815742768E+01  1.243903896974E+01      105
 Si  5.479826887823E+00  1.562299078930E+01  2.025779800535E+01  0.000000000000E+00 -5.093106402381E+00 -9.736433158825E+00 -2.564046604291E+01 -1.262489998772E+01 -6.935863177290E+00 -1.452045037959E+01      107
 Si  8.354234892549E+00  1.660704839612E+01  2.109748668038E+01  0.000000000000E+00  3.140890951563E+00  4.064550926597E+01 -3.367292329007E+01  5.163579161703E+01 -1.333388734619E+01  6.243651119514E+00      108
 Si  7.285650741240E+00  1.948182546650E+01  2.050591525610E+01  0.000000000000E+00  2.148497844531E+01  1.800009361632E+01 -1.412873227429E+01  1.894629406946E+01 -5.019869022248E+00  5.745081875167E+01      109
 O   6.983708637918E+00  1.618395182408E+01  2.035087702971E+01  0.000000000000E+00  4.931911715866E+00 -6.749152539628E+00  5.559692923796E+00 -8.486874830184E+00  1.907892000891E+00  1.142914542236E+01      110
 O   4.830080521728E+00  1.623849086222E+01  1.886904182950E+01  0.000000000000E+00  2.006555502156E+00 -4.063878525597E+00 -1.146643986434E+01 -4.722205686484E+00 -2.935169063842E+00  6.745939956847E+00      111
 O   4.441102089204E+00  1.619069859840E+01  2.133395583570E+01  0.000000000000E+00  3.011846405050E+00  6.874766611550E+00  1.154583860440E+01  9.058655893086E+00  2.403503988782E+00  1.098013429761E+01      112
 O   5.719669769654E+00  1.394290698155E+01  2.021715413193E+01  0.000000000000E+00 -8.541560382597E+00  3.785912994703E+00  2.165296451223E+01  5.489557281365E+00  6.125877348308E+00 -2.082186326975E+01      113
 O   8.831041211403E+00  1.626705221529E+01  2.254241730917E+01  0.000000000000E+00  1.694489025377E+00 -1.501337380726E+01  9.432579413968E+01 -2.080510550421E+01  3.695233585295E+01  3.121301417828E+00      114
 O   1.106828921615E+01  1.364271552549E+01  3.679001228502E+01  0.000000000000E+00  6.829834891095E+00  3.414250320556E+00  1.092255679675E+01  9.207134093110E+00  3.286055374748E+00  8.418418843752E+00      115
 O   8.065402073200E+00  1.826036183037E+01  2.125190721470E+01  0.000000000000E+00  1.405911713474E+00 -9.436392040881E+00  4.129553295774E+00 -1.098233046843E+01  1.567224408457E+00  3.183034938196E+00      117
 O   5.915410355383E+00  1.994080541650E+01  2.119016089924E+01  0.000000000000E+00 -5.918253608346E-01  2.337193475426E+00 -6.898425723262E+00  2.483626150623E+00 -1.925753143323E+00 -1.995039000163E+00      118
 O   6.447566090428E+00  9.658173249931E+00  2.224740430810E+01  0.000000000000E+00 -6.868443735741E+00 -8.325591330685E-01  5.204220004611E+01 -1.917782914477E+00  1.508245724497E+01 -1.028862963587E+01      119
 Ca  2.398793279088E+01  1.907279397913E+01  2.108960717654E+01  0.000000000000E+00 -2.066933645181E+01  1.653824077945E+01  6.676351690047E-01  1.828704288482E+01  7.593876656328E-01 -1.643417960470E+01      120
 Ca  3.301679324566E+00  1.174579134471E+01  1.837002372225E+01  0.000000000000E+00 -2.351242826766E+00  6.254266092882E+00 -2.100703335932E+01  9.781462408083E+00 -3.098333799718E+00 -2.822093463272E+00      121
 Si  8.574077291819E-01  1.713222509989E+01  1.456832458868E+01  0.000000000000E+00 -2.276424369233E+02 -4.275992909930E+00 -1.111267599916E+01 -3.636074840690E+00 -1.047688157446E+02  3.704654804063E+00      125
 Si  2.741031310922E+00  1.894499549050E+01  1.587848223983E+01  0.000000000000E+00 -9.373890054736E+00 -8.597661910893E+01  3.320844942774E+01 -7.206009736166E+01  5.260150210221E+00 -5.835560975450E+01      126
 Si  3.535748184139E+00  2.042772777111E+01  1.307382774001E+01  0.000000000000E+00  5.081108452044E+00 -1.760453395941E+00  2.784209943091E+00 -1.126697237243E+00  1.156127768250E+00  1.995038866538E+01      127
 O   1.103274069003E+00  1.839360687980E+01  1.558907929930E+01  0.000000000000E+00  2.060835193809E+01 -6.016745901751E+00 -1.010219497531E+01 -5.099354879067E+00  1.870648574489E+01  1.030423024152E+01      128
 O   2.135325847867E+00  1.690728531138E+01  1.350304351534E+01  0.000000000000E+00  1.226182664530E+01  1.157015250452E+01  3.264577097443E+00  9.240529740306E+00  1.991028097038E+00 -2.200944116881E+01      129
 O   7.451324555847E-01  1.566320774595E+01  1.533587010173E+01  0.000000000000E+00  1.151402250334E+01 -1.028828364002E+01  9.373304904083E+00 -1.007327388056E+01  1.407309363044E+01  8.941664230393E+00      131
 O   3.571150472993E+00  1.760826403054E+01  1.623299706451E+01  0.000000000000E+00  3.905207434691E+00  2.172288187650E+00  4.085225004953E+00  2.002624887508E+00  7.434866865313E-01  2.061330541304E+01      132
 O   2.862871551990E+00  3.947597667373E+00  8.231549070898E+00  0.000000000000E+00  2.213657492926E-01  7.295631202633E+00 -4.137862528501E+01  1.542934505796E+01 -1.492520649944E+01 -3.826567570282E+00      133
 O   3.327301405082E+00  1.972973791213E+01  1.473468196679E+01  0.000000000000E+00  5.260696631074E+00  7.047646534391E+01 -6.832025998559E+01  5.263365928179E+01 -1.512175015702E+01  2.551119474320E+01      134
 O   2.272301835586E+00  2.074332672026E+01  1.194391448692E+01  0.000000000000E+00 -1.852449000212E+00 -2.841425309407E+01  1.828964671895E+01 -1.636079948709E+01  4.562413883264E-01  1.034045256337E+01      135
 O   8.621236911181E+00  1.571210838506E+01  1.262710088144E+01  0.000000000000E+00 -2.151512787534E+01  1.304231492865E+01 -5.295513793907E+00  1.048151032920E+01 -3.615547180020E+00 -3.921108126112E+01      136
 Si  9.140357419548E+00  1.392412768426E+01  2.586830885269E+01  0.000000000000E+00  1.733345323334E+01  1.304934734630E+01 -2.996097818112E+01  2.424313789235E+01 -1.058646897925E+01  2.640522738356E+01      139
 Si  8.886996214768E+00  1.664942877221E+01  2.422945726958E+01  0.000000000000E+00  8.874787545060E+00  7.823493343763E-01 -3.862186131860E+01  1.138531539220E+00 -1.416591100357E+01  1.662655632220E+01      140
 O   8.692103608085E+00  1.520086444835E+01  2.491161448873E+01  0.000000000000E+00 -3.592239510268E+00 -7.006159193915E+00 -2.930717492904E+00 -1.148189548552E+01 -1.022579251372E+00 -6.282155427924E+00      142
 O   8.200136435301E+00  1.263083446010E+01  2.557263237373E+01  0.000000000000E+00 -5.454230219488E+00  5.541743972918E+00  1.112606142303E+01  1.121992230810E+01  3.567689877330E+00 -8.401260095267E+00      143
 O   7.585380793264E+00  1.758947484145E+01  2.457745019941E+01  0.000000000000E+00  1.877089601936E+01 -6.834917931255E+01 -2.271441351259E+01 -9.550305315344E+01 -7.010388571260E+00  4.352717579811E+01      148
 O   1.315907119472E+01  1.622690451399E+01  1.474958133090E+00  0.000000000000E+00 -3.925841125262E+00 -2.246977721233E+01  3.865679267875E+01 -1.136642586759E+01 -1.697064588225E-01 -4.841090084100E+00      150
 Ca  5.252807664118E+00  1.138193846928E+01  7.712494885414E+00  0.000000000000E+00 -9.712926699461E-01 -2.322826856747E+00  6.682967073972E+00 -1.573966534850E+00  4.551619312137E+00 -2.104625585381E+00      151
 Ca  1.255769178237E+01  2.191970538784E+01  1.292853746793E+00  0.000000000000E+00  1.088489841205E+01 -7.149207943279E-02 -3.718665126080E+01 -2.365465226677E+00  6.018279340175E+00  1.899981067408E+01      152
 H   7.686250295655E+00  1.794580364055E+01  1.527864660236E+01  0.000000000000E+00 -6.122433466975E+00  2.310609545213E+01  3.825777766074E+01  1.967200097830E+01  1.924639416757E+01 -1.429461500399E+01      155
 H   1.019370991410E+01  1.343045880859E+01  3.653248164254E+01  0.000000000000E+00 -3.143785455156E+01  6.873534186254E+00 -3.130109631769E+01  1.869684908442E+01 -8.733989083407E+00 -4.142013203664E+01      156
 H   1.703233526242E+01  1.732632701524E+01  1.359726724282E+01  0.000000000000E+00 -2.406713823581E+01 -1.777320355709E+01 -1.522139237063E+01 -1.394796475412E+01 -1.906676197412E+01 -2.448255632419E+01      159
 H   1.634508035269E+01  3.963670052508E+00  1.202689595365E+01  0.000000000000E+00 -1.462523021497E+01  2.570923266905E+00  6.587636870507E+00  7.800908306264E+00  8.952888126555E+00 -3.546607649717E+00      160
 H   1.623146331682E+01  1.485287557643E+01  1.960144301632E+01  0.000000000000E+00  1.939769082181E+01  5.790654124909E+01 -2.655895089112E+01  7.641966451042E+01 -2.199280107916E+01  1.775018571172E+01      164
 H   1.933414280186E+01  6.671238920342E+00  5.062774072370E+00  0.000000000000E+00 -9.421733656615E+01  2.938454231388E+00 -1.689640059142E+01  2.229980079136E+00 -6.452538019717E+01 -3.250965760998E+01      168
 H   5.477848991955E+00  2.194297574560E+01  3.226247297365E+01  0.000000000000E+00  2.753299257908E+00 -3.271419269718E+01  5.298466654414E+01 -4.809925371946E+01  8.996272618499E+00  1.102906979097E+01      169
 Si  1.220441843765E+01  9.422465581316E-01  1.969136667588E+01  0.000000000000E+00  3.175334416444E+01 -1.479656013382E+02  6.091275610489E+01  8.857496261817E+00  3.775282721260E+01 -3.595198291985E+01      177
 Si  1.094546240744E+01  3.425626547710E+00  1.909613519874E+01  0.000000000000E+00 -2.113792324512E+01 -1.243781272133E-01 -2.617361823676E+01 -9.593108251315E+00 -1.500211176217E+01 -6.968577082362E+00      178
 Si  7.968993235889E+00  4.171347782038E+00  2.018137378094E+01  0.000000000000E+00  1.275653373736E+01 -8.270982605859E+00  1.435206754444E+01 -3.963347596788E+01  5.667182542880E+00  6.660765985671E+00      179
 O   1.136982200220E+01  1.771576893838E+00  1.864988384325E+01  0.000000000000E+00 -2.265466038911E+01  1.723778985099E+01 -5.825105530594E+00  5.937042799912E+01 -3.551250698585E+00 -1.526172401148E+00      180
 O   1.166661810848E+01  1.046368975444E+00  2.138025873894E+01  0.000000000000E+00  3.175415144155E+00 -5.141788482521E-01 -5.897283520756E+01  1.357258565202E+01 -3.217985130779E+01  6.855905369948E+00      182
 O   1.115545306441E+01  4.517781948164E+00  1.788209600244E+01  0.000000000000E+00  1.323162865986E+01 -4.256694687409E+00 -2.457560997323E+01 -1.678557273376E+01 -1.533109225832E+01  5.355516948761E+00      184
 O   1.184034765643E+01  3.782379508979E+00  2.035507949327E+01  0.000000000000E+00  2.972623391851E+00  1.568767693297E+00 -1.889921140305E+01  6.928770446535E+00 -1.099348364217E+01  8.709808206906E-01      185
 O   9.224064453146E+00  3.643008605224E+00  1.908622791029E+01  0.000000000000E+00  1.408348121453E+00  4.931385501634E-01  3.946068475001E+01  1.633375853479E+00  1.907070905839E+01  5.554396384708E-01      187
 O   6.787839385052E+00  4.849256488084E+00  1.932844338599E+01  0.000000000000E+00  4.728208630276E+00 -3.577809269307E+00  2.485794960201E+01 -1.424315118717E+01  8.729713302339E+00  3.377267287917E+00      188
 Ca  1.132144954471E+01  4.336072096833E+00  2.223879031222E+01  0.000000000000E+00 -1.466114036272E+01 -3.384830711560E+00  2.192453772991E+01 -1.736007583724E+01  1.116146805718E+01 -5.615160972407E+00      190
 O   1.564598013928E+01  2.041403521337E+01  8.418311807430E+00  0.000000000000E+00 -4.631187799156E+00 -6.601491546773E+01  2.120278751746E+01 -2.722314018468E+01  3.940675992812E+01 -6.042525298518E+00      193
 O   5.401355426684E+00  1.246756604367E+01  1.274203025643E+01  0.000000000000E+00 -6.838213372974E+00  1.148274207188E+01  4.360150415242E+01  1.173552611586E+01  1.848270772600E+01 -1.578416343925E+01      194
 Si  1.809992128471E+01  1.180349309637E+00  1.962305379391E+01  0.000000000000E+00  2.027325238311E+01 -1.134207655282E+02  5.520219705472E+01  4.012488907012E+01  5.091742763012E+01 -1.381958015958E+01      196
 Si  1.605628503463E+01  3.503571504169E+00  1.962777717122E+01  0.000000000000E+00  5.109185126542E+01  8.183118568967E+00  2.210426851125E+01  3.711460726594E+01  1.808215125955E+01  1.022096915999E+01      197
 O   1.958772287229E+01  1.863845362544E+00  1.975635563846E+01  0.000000000000E+00  2.622987875268E+01 -7.469548353122E-01  5.267628446289E+00  2.432839690853E+00  5.222665965743E+00 -2.884936803587E+00      202
 O   1.702228564907E+01  2.254076965316E+00  2.019076327256E+01  0.000000000000E+00 -2.343389552205E+01 -2.365096344525E+00  1.681178943828E+01  2.815973798040E+01  1.417356432876E+01 -8.459298471697E-01      205
 O   1.539483190410E+01  4.749945033174E+00  2.042826232418E+01  0.000000000000E+00 -4.211777982942E+00 -2.173632025398E+00  2.207412566367E+01 -9.348218747994E+00  1.663516204313E+01 -1.299508434748E+00      206
 Ca  1.383355893956E+01  5.486910066789E+00  1.877249446250E+01  0.000000000000E+00  4.331622621762E+00 -3.569108429289E+00 -5.806429986020E+00 -1.221107461382E+01 -4.278791590563E+00  1.718084541565E+00      209
 O   2.315385616394E+01  1.947492620112E+01  1.449478052763E+01  0.000000000000E+00 -7.279606589508E+00 -1.150028731658E+01  9.037157268050E+00 -8.559423483148E+00  1.443588877503E+01 -6.122945573304E+00      210
 O   1.362226109176E+01  1.751530725459E+01  4.061830468735E+00  0.000000000000E+00 -5.503699809570E+00 -6.991199264596E+00  5.545760118621E+00 -1.654074061325E+00  1.797077621034E+01 -7.076578003631E+00      212
 Si  1.287440217736E+01  3.780331363905E+00  1.449429771577E+01  0.000000000000E+00  2.822291816199E+01  1.011648185409E+01  5.615617671933E-01  3.882903871272E+01  4.988011271777E-01  8.280131049558E+00      213
 Si  1.116476012355E+01  5.382223604784E+00  1.643676166559E+01  0.000000000000E+00  4.162970214856E+01  1.033413407557E+00  2.769856416285E+01  3.155939093081E+00  1.881440097123E+01  2.006853376916E+01      214
 Si  9.208482008105E+00  6.383737578777E+00  1.451160610994E+01  0.000000000000E+00 -1.882800928987E+01  1.528232717615E+01  1.673347159812E+01  3.474001079882E+01  1.061838854893E+01 -1.305243039314E+01      215
 O   1.226784592448E+01  5.329018896967E+00  1.517379026528E+01  0.000000000000E+00 -5.890137670806E+00 -1.485739292100E+01  1.063401834960E+01 -4.230477850257E+01  8.597489248913E+00 -2.558611768251E+00      216
 O   1.412564300717E+01  3.418826149784E+00  1.549304999133E+01  0.000000000000E+00 -6.040384714790E+00 -2.166375650257E+00  1.795088880471E+00 -1.083570767646E+01  1.636655449112E+00 -1.433604636088E+00      217
 O   1.352989883011E+01  4.515183034799E+00  1.313992952585E+01  0.000000000000E+00 -2.490956901501E+01 -1.268711343787E+00  1.166050388109E+01 -3.692159878685E+00  1.200656651232E+01 -8.312794118638E+00      218
 O   1.187348901299E+01  2.556666188417E+00  1.408594894624E+01  0.000000000000E+00 -5.107143931367E-01  3.087467937714E+00  6.346897657390E+00  1.092712375931E+01  5.349999484539E+00  1.409019823352E+00      219
 O   1.168746442895E+01  6.719799671364E+00  1.725797683139E+01  0.000000000000E+00  2.702570662011E+00  6.466327460956E+00  5.327736411234E-01  1.660700243504E+01  3.608055011400E-01  1.553864275423E+00      220
 O   9.755780668347E+00  5.572033917364E+00  1.585937013573E+01  0.000000000000E+00 -3.740837190344E+01 -1.682306137323E+00 -1.172510478512E+01 -4.788254362607E+00 -7.212616239994E+00 -2.136586749184E+01      222
 O   1.032624750514E+01  6.305614748662E+00  1.348174503108E+01  0.000000000000E+00  2.647559886173E+01  2.743430651963E+00 -2.856744108222E+01  5.865602964100E+00 -2.188102997967E+01  1.616704679790E+01      223
 O   2.061514459957E+01  2.023514714023E+01  1.216062265841E+01  0.000000000000E+00  7.165925199360E+00  1.141102138947E+01 -1.774337206243E+01  6.857628674638E+00 -3.007923122243E+01  7.033836221939E+00      224
 Ca  1.561081796751E+01  6.473092342948E+00  5.938365570261E+00  0.000000000000E+00  2.493242429291E+00  3.856649399467E+00 -1.448284101098E+00  3.538060759369E+00 -3.807259623876E+00  1.033833621771E+00      225
 Ca  1.655526398311E+01  3.818631034897E+00  1.625631379813E+01  0.000000000000E+00 -1.653977592427E+01  1.143988030746E+00  2.915701067300E+01  8.723693000302E+00  2.969320195490E+01 -3.418375157106E+00      226
 Si  2.118063568308E+01  2.691882119222E+00  1.958437405933E+01  0.000000000000E+00 -3.554059431945E+01 -4.612193539749E+00 -1.515322991981E+01 -2.627533901134E+01 -1.638832272000E+01 -2.569370563091E+00      228
 Si  2.223356436606E+01  4.946588784420E+00  2.063608035465E+01  0.000000000000E+00  1.792236954821E+01 -1.165581580152E+01  5.757998344831E+01 -4.862549970531E+01  6.203737561557E+01  3.987421483024E+00      229
 O   2.224704263220E+01  1.647215149631E+00  2.028282410391E+01  0.000000000000E+00 -6.713528656421E+01  1.327981909358E+01 -3.059675304642E+00  2.656291618951E+01 -3.355978762837E+00 -3.408335353825E+00      230
 O   2.078989844272E+01  4.215821623635E+00  2.049859423943E+01  0.000000000000E+00 -1.270532761672E+00 -9.948111667133E+00 -3.766165461549E+01 -4.837071458856E+01 -3.819686196503E+01 -2.576414456739E-01      236
 O   2.246407660338E+01  5.014363591865E+00  2.236855377235E+01  0.000000000000E+00  5.705467422919E+01 -1.821714346040E+00  4.167261686299E+00 -8.126477978850E+00  4.185057590227E+00  1.273557272136E+01      237
 H   1.316619278290E+01  1.699831070480E+01  4.815076681561E+00  0.000000000000E+00  4.356962543728E+00  1.551700759768E+01 -5.095267658541E+00  4.395470982307E+00 -1.393233809334E+01  5.625088760939E+00      243
 H   1.810472873418E+01  1.682844575720E+01  6.516376315862E+00  0.000000000000E+00 -2.316351567624E+01 -1.292500275624E+01 -1.106783470152E+01 -5.004869912430E+00 -3.075024142758E+01 -2.153061627307E+01      247
 H   1.296985785229E+01  6.382197646411E+00  5.645102871533E+00  0.000000000000E+00 -3.356341704013E+01  1.999224207031E+00  1.574624325016E+01  1.768329177066E+00  3.617764659207E+01 -1.651586036474E+01      248
 H   4.968219939805E+00  8.775090402321E+00  1.041030100765E+01  0.000000000000E+00  2.521624774198E+00  6.268671899216E-01 -2.930470753715E+01  7.436819268756E-01 -1.398540082647E+01  4.453805512319E+00      249