     8448
Lattice="     49.70      0.00      0.00      0.00     49.70      0.00      0.00      0.00     49.70" pbc="T T T" config_type=md Properties=species:S:1:pos:R:3:charge:R:1:forces:R:3:id:I:1
 Si  1.087214502363E+01  1.728928197376E+01  1.654227020024E+01  0.000000000000E+00  2.447946540965E+01  3.401593630157E+01  2.220150744396E+00  3.254622200441E+01  1.459158904745E+00  3.892813967386E+01        1
 Si  1.291879349497E+01  1.966251844097E+01  1.704922069443E+01  0.000000000000E+00 -1.000334725307E+01 -9.662967949869E+00  2.961367911606E+01 -8.378686262143E+00  2.243932505676E+01 -1.522518336651E+01        2
 Si  1.125938526840E+01  2.228745104225E+01  1.815212674452E+01  0.000000000000E+00  4.129317799124E+01  4.169868681658E+01 -4.277944488567E+01  3.396170547899E+01 -2.653519658139E+01  8.173800442214E+01        3
 O   1.205092622203E+01  1.835624516939E+01  1.721210533619E+01  0.000000000000E+00 -6.012963587531E-01 -6.194326377753E+00  8.725810527807E+00 -5.808235677656E+00  6.109310676650E+00 -9.159083025962E-01        4
 O   1.002024679180E+01  1.825694086899E+01  1.559483578022E+01  0.000000000000E+00 -1.173858500696E+01  4.193668814098E+00 -6.619888631082E+00  3.582176057960E+00 -4.253518200032E+00 -2.138776187959E+01        5
 O   1.179477477103E+01  1.633404099993E+01  1.556975739708E+01  0.000000000000E+00  4.823353288941E+00 -9.092576330522E+00  1.127265898011E+01 -8.667126988436E+00  8.539534069167E+00  6.679640087084E+00        6
 O   1.020893321779E+01  1.696882903128E+01  1.794763875106E+01  0.000000000000E+00 -9.331803824337E+00 -2.878771054753E+01  1.667473247392E+01 -3.044826654948E+01  9.484881694579E+00 -1.551090405535E+01        7
 O   1.298066177602E+01  1.998825436536E+01  1.550867287347E+01  0.000000000000E+00  1.021597502456E+01  1.545381217287E+01 -4.311354441850E+01  1.199044765272E+01 -3.608576585683E+01  1.573105523466E+01        8
 O   1.450364717890E+01  1.932675545804E+01  1.741809334907E+01  0.000000000000E+00 -4.845056583462E+00  3.528204290136E+00 -9.329590834655E-01  3.179767644579E+00 -7.768536491196E-01 -6.456253562564E+00        9
 O   1.235220962334E+01  2.093606006448E+01  1.792663011550E+01  0.000000000000E+00 -1.659856235367E+01  1.124023653813E+01 -7.885191364228E+00  9.624521624854E+00 -5.433231791114E+00 -2.813330642996E+01       11
 O   1.860744089010E+01  1.742835393798E+01  2.060574849544E+01  0.000000000000E+00  6.238941257612E-01 -1.107539505961E+01 -4.679995655355E+01 -1.309457025592E+01 -4.226138280888E+01  5.843601872935E-01       13
 Ca  3.707528496966E+00  1.624172982354E+01  1.751655910279E+01  0.000000000000E+00  4.277027771567E+00 -1.665195256449E+01 -6.393335739950E+00 -1.795898062841E+01 -1.324204449302E+00  1.897820184370E+01       14
 Ca  2.245361364604E+01  1.331413602812E+01  1.817695971223E+01  0.000000000000E+00 -1.382875594338E+00 -5.999473370743E-01 -6.316376966136E-02 -8.190706894102E-01 -7.802486790184E-02 -8.199924548109E-01       15
 O   6.261014530012E+00  4.256444775535E+00  1.642739909255E+01  0.000000000000E+00  7.856273499998E+00  7.547181503803E+00  6.750435325379E+01  2.926588449348E+01  2.572809817184E+01  5.333481673271E+00       16
 O   1.010135626972E+01  1.604960250145E+01  2.087107251259E+01  0.000000000000E+00 -1.758944939338E+01  2.226565396141E+01 -4.254486671738E+00  2.895449144780E+01 -2.059122049913E+00 -2.794710566040E+01       18
 Si  2.025359724466E+01  1.966313984203E+01  1.782314267327E+01  0.000000000000E+00 -2.072120220195E+01 -4.574664993474E+01  5.796205996111E+01 -4.146586329353E+01  6.586606186370E+01 -2.011711261314E+01       19
 Si  1.812976950616E+01  2.137341218149E+01  1.836975201697E+01  0.000000000000E+00 -4.362929642112E+01  7.509986573291E+01 -2.016709471111E+01  6.454588992655E+01 -1.990363170845E+01 -5.143512361148E+01       20
 O   1.863637741083E+01  1.996294413920E+01  1.792184745452E+01  0.000000000000E+00  2.467293438896E+01 -4.147464681857E+01 -1.201918270597E+01 -3.723410176022E+01 -1.249837806323E+01  2.642919276097E+01       22
 O   2.130221272947E+01  2.078996431400E+01  1.784317481984E+01  0.000000000000E+00  1.667968610077E+01  3.799464392263E+01  4.803261998493E+00  3.260924662928E+01  5.734411612305E+00  1.627859430415E+01       23
 O   2.064627943176E+01  1.871154765346E+01  1.661140550296E+01  0.000000000000E+00 -4.359035299283E+00  1.840387118013E+01 -5.999261020710E+00  1.633826194707E+01 -7.456468352155E+00 -3.950556660596E+00       24
 O   2.041865009756E+01  1.886691574182E+01  1.946123738947E+01  0.000000000000E+00  5.650159753180E+00  2.266749829667E+01 -3.248469403182E+01  2.338154107505E+01 -3.408280715596E+01  5.220770593636E+00       25
 O   1.848234733952E+01  2.186767423387E+01  1.989457559820E+01  0.000000000000E+00  1.682823992953E+01  1.069146871500E+01  5.366562008037E-01  9.726788058551E+00  4.985613418191E-01  1.991059154708E+01       26
 O   2.144126761292E+01  1.711480415155E+01  2.102769036385E+01  0.000000000000E+00 -1.203456085662E+01 -6.799008607499E+00  5.350828153646E-01 -8.353437556967E+00  5.456069421218E-01 -9.606202199858E+00       27
 O   1.862012047875E+01  2.256425958687E+01  1.718939328188E+01  0.000000000000E+00 -1.589246892822E+01 -5.097777256137E+01  2.024218476886E+01 -3.883473232604E+01  2.192700539040E+01 -1.925883319508E+01       29
 Ca  4.596237596042E+00  9.658581607885E+00  1.346618597119E+01  0.000000000000E+00  6.168492834850E-02  6.700124563796E+00  1.144125561239E+01  9.341446505208E+00  3.974686667113E+00  4.860495640694E-01       32
 Si  1.246261659767E+01  1.838852475274E+01  1.160337347758E+01  0.000000000000E+00  3.752195732016E+01  1.499871395036E+01  3.970397194242E-02  9.464363345596E+00  4.264409662234E-02  5.536344920389E+01       37
 Si  1.219476811473E+01  2.062899119371E+01  1.415591036169E+01  0.000000000000E+00  2.427972921941E+01 -2.780103484935E+01 -1.406486995106E+01 -1.907746983816E+01 -1.211634032956E+01  4.107222995474E+01       38
 O   1.193359911645E+01  1.925676791230E+01  1.298002320976E+01  0.000000000000E+00 -7.961099013031E-01  4.913606445485E+01  2.958088238083E+01  3.312016117994E+01  2.719612947829E+01 -1.284650460643E+00       40
 O   1.345602669364E+01  1.724840498132E+01  1.199797129207E+01  0.000000000000E+00  2.585782412308E+00  1.693424686352E+00  3.150240381879E+00  1.177944325527E+00  3.533073853740E+00  3.314546207177E+00       41
 O   1.299329713737E+01  1.938436975360E+01  1.032692209727E+01  0.000000000000E+00 -3.738901869556E+00  1.246903721651E+00 -2.118072033738E+00  6.642814680056E-01 -2.664950798844E+00 -5.577972668957E+00       42
 O   1.105605384749E+01  1.794777074971E+01  1.118407679978E+01  0.000000000000E+00 -4.029305300170E+01 -1.288520167253E+01 -1.564142965447E+01 -8.029358469973E+00 -1.546238385227E+01 -6.540945694153E+01       43
 O   1.322223346113E+01  2.155711602615E+01  1.326686681045E+01  0.000000000000E+00 -1.730647376461E+01  1.512058609549E+00  1.553934023416E+01  9.305641885563E-01  1.548706166599E+01 -2.821593371830E+01       44
 O   1.117748811222E+01  2.161197933944E+01  1.487471717210E+01  0.000000000000E+00 -1.045677205931E+01  5.246792413160E+00 -3.103591909598E+00  3.611171007556E+00 -2.332169497634E+00 -2.021845511569E+01       46
 O   8.681885480712E+00  2.161920724489E+01  1.568703673127E+01  0.000000000000E+00 -7.172123377495E+00 -2.317525382332E+01 -4.676247324278E+00 -1.681611420182E+01 -2.588037782046E+00 -1.785967138457E+01       47
 O   1.738160613787E+01  1.577724795344E+01  9.944760366400E+00  0.000000000000E+00 -9.076485966510E-01  4.718131039147E+00 -1.489801356646E+01  2.973945944188E+00 -2.603897876954E+01 -8.238707545420E-01       48
 Ca  7.142263244105E+00  2.157116601782E+01  1.331454668300E+01  0.000000000000E+00  5.533278539921E+00  1.427148330162E+01  1.075531535568E+01  8.808904001666E+00  5.769426130121E+00  1.671168730808E+01       49
 Si  2.088169296921E+01  2.112315965077E+01  2.295734788680E+01  0.000000000000E+00 -5.175771697346E-01 -4.842600819806E+01  1.117648631927E+02 -5.263098586349E+01  1.016598071103E+02 -5.235622036976E-01       51
 Si  1.964674529979E+01  2.289461978405E+01  2.058576633810E+01  0.000000000000E+00 -1.036010748451E+01  2.660520494085E+01 -1.430826513912E+01  2.392215015823E+01 -1.365559271650E+01 -1.207277430233E+01       52
 O   2.042024228908E+01  2.218682171654E+01  2.194857863717E+01  0.000000000000E+00 -2.003231908049E+01  8.109951490738E+01 -7.745623861745E+01  8.022866470568E+01 -7.206276021403E+01 -2.176533881018E+01       54
 O   1.956438535811E+01  2.017251920467E+01  2.317059629902E+01  0.000000000000E+00 -9.572909680178E+00 -1.273881510388E+01 -8.093454577153E+00 -1.463208135311E+01 -6.833810497682E+00 -9.870471309636E+00       55
 O   2.204580865315E+01  2.018475156054E+01  2.254875753915E+01  0.000000000000E+00  4.734938695124E+01 -4.216690670175E+01 -3.606867651403E+01 -4.710542770575E+01 -3.526416652536E+01  4.335225925215E+01       56
 O   2.139640790655E+01  2.161598783639E+01  2.451321970036E+01  0.000000000000E+00 -6.518733171293E+00  2.606166690219E+01 -2.604772729627E+01  2.955476156660E+01 -2.273580562171E+01 -6.585631455278E+00       57
 O   1.649527458124E+01  2.113722657556E+01  1.804360640366E+01  0.000000000000E+00  4.346466069644E+01  1.324561158875E+01  2.973082838702E+01  1.130699911026E+01  2.717960959691E+01  5.569609506320E+01       58
 O   1.705120165398E+01  1.806462304692E+01  1.454391371164E+01  0.000000000000E+00 -3.466937768318E+01  2.465281187983E+01 -5.299960007229E+01  1.984809579465E+01 -6.213642945982E+01 -3.672991803318E+01       59
 H   2.580427935207E+00  8.424761161522E+00  1.446101987139E+01  0.000000000000E+00 -4.728961547885E-02 -9.582554739522E+00  5.445420178406E+00 -1.644836118794E+01  6.263690088949E-01 -3.086543559748E+00       70
 H   1.482274960685E+01  1.916892807627E+01  1.832642352659E+01  0.000000000000E+00  2.381716697225E-01  6.156221884707E+00 -1.537813679189E+00  5.885646246565E+00 -1.243812087805E+00  3.080059859210E-01       73
 H   1.562215012473E+01  1.134978092516E+01  1.801104299879E+01  0.000000000000E+00  1.785727977543E+01  1.503904746874E+01 -2.642946165352E+01  2.386556466654E+01 -2.292399266908E+01  1.297364394480E+01       83
 Si  2.270896920432E+00  2.140689349448E+01  2.161896813309E+01  0.000000000000E+00  1.276993354767E+00 -3.154865793591E+01  8.326154982132E+00 -3.186120539788E+01 -1.957167260028E+00 -3.883731552603E+01       89
 Si  2.766955759067E+00  2.060147910061E+01  1.861860583189E+01  0.000000000000E+00  4.515106030842E+00  7.081544072537E+01 -4.123270327524E+01  6.399952019166E+01 -6.919932296712E+00  4.742173582091E+01       90
 O   1.895579532551E+00  2.090680883502E+01  1.992148838882E+01  0.000000000000E+00  6.183688407760E+00 -1.641188930324E+01  3.773153656007E+01 -1.563841066196E+01  6.678763845513E+00 -1.575417851960E-01       92
 O   1.083002992900E+00  2.081353978396E+01  2.267473487568E+01  0.000000000000E+00  1.738501174282E+01  2.509094605367E+00 -3.630165204884E+01  2.733463675340E+00  1.003379828556E+00  1.422468111123E+01       95
 O   1.981787898082E+00  1.961080143260E+01  1.754299147614E+01  0.000000000000E+00 -1.084494552004E+00  5.018290470724E+00  3.402973301617E+01  4.489149882796E+00  1.994668476577E+00 -8.484466997304E+00       96
 O   4.463214493826E+00  2.058970660762E+01  1.867207955564E+01  0.000000000000E+00 -9.865819771035E+00 -1.074425160874E+01  1.745005864195E+01 -9.743583268447E+00  4.170711569813E+00 -4.550119612181E+01       97
 O   1.077784968888E+01  1.350216557861E+01  2.136766089621E+01  0.000000000000E+00  5.126915396208E+00  2.476814314728E+01  2.180525354575E-01  3.919647412991E+01  1.099857145270E-01  6.422845241436E+00       98
 O   3.635194426783E+00  1.242568798198E+01  2.028124499136E+01  0.000000000000E+00  7.420694795281E+00  1.590040349715E+01 -4.044475663851E+00  2.595268602067E+01 -7.169601406835E-01  2.545758818445E+01      101
 Ca  2.206789564572E+01  2.441831833761E+01  1.826404757686E+01  0.000000000000E+00 -7.033793407974E+00  8.587988961165E+00 -6.399450529947E+00  6.423515199022E+00 -7.732262297858E+00 -7.782953540938E+00      102
 O   1.649954034436E+01  4.269354093640E+00  1.218076712737E+01  0.000000000000E+00 -2.815232812441E+01  3.616874285890E+00 -2.021933392601E+01  1.031919640280E+01 -2.738823526957E+01 -7.284582165015E+00      105
 Si  5.779268172637E+00  1.602358113702E+01  2.028546372001E+01  0.000000000000E+00 -9.113788914797E+00  1.385129974557E+01  1.446128365931E+00  1.753540834980E+01  4.119976626675E-01 -2.526886307739E+01      107
 Si  8.504281587472E+00  1.657937956270E+01  2.129888705488E+01  0.000000000000E+00  3.013745582445E+01  1.714127118951E+00  3.932009062822E+01  2.202072747425E+00  1.569984017877E+01  5.875397163514E+01      108
 Si  7.626479492411E+00  1.945856507795E+01  2.069503524919E+01  0.000000000000E+00  8.290663344909E-01 -5.244684873668E+01 -6.789711752860E+01 -5.577951811796E+01 -2.502126564127E+01  2.115319557298E+00      109
 O   7.394409923162E+00  1.625882958542E+01  2.020034454389E+01  0.000000000000E+00 -5.400119564900E-01 -2.128956281468E+01  9.090989199757E-01 -2.645064343568E+01  3.327789810910E-01 -1.187378366346E+00      110
 O   5.130227519831E+00  1.702470156407E+01  1.917404106811E+01  0.000000000000E+00 -6.883776460806E-01 -4.714372129107E+00 -9.993403942314E+00 -5.309553560965E+00 -2.673846151655E+00 -2.284386792320E+00      111
 O   5.009673382470E+00  1.652738493901E+01  2.168330359750E+01  0.000000000000E+00  4.821131495237E+00 -1.602471538656E+01 -1.988706463832E+01 -2.102382016711E+01 -4.594673405095E+00  1.590536747209E+01      112
 O   5.491594619994E+00  1.435462077092E+01  2.006579406582E+01  0.000000000000E+00  4.699934672787E+00  2.565833909614E+01 -3.153027264747E+01  3.586684431378E+01 -8.629186319259E+00  1.228528042298E+01      113
 O   8.709309848866E+00  1.577451025021E+01  2.283933410776E+01  0.000000000000E+00  4.662814237023E+00  1.010804289076E+00 -4.016043105123E+01  1.463506410632E+00 -1.531435356385E+01  8.445400640595E+00      114
 O   1.218616446408E+01  1.268812757662E+01  3.670386782740E+01  0.000000000000E+00 -7.375726898147E-01 -6.829977197633E+00 -9.183610854037E+00 -1.975757091125E+01 -3.049078989923E+00 -7.679542166843E-01      115
 O   8.250748651594E+00  1.823756741603E+01  2.158177146010E+01  0.000000000000E+00  5.505961006350E+00 -5.940776585562E+00  4.596157063781E+00 -7.030130698923E+00  1.757118815136E+00  1.217045134734E+01      117
 O   6.059607659065E+00  1.970936516439E+01  2.092163816347E+01  0.000000000000E+00  2.254533658075E+00 -5.861290258667E-01  8.551082318736E+00 -6.221803337656E-01  2.476680052826E+00  7.333053498266E+00      118
 O   6.871393575055E+00  9.982889950933E+00  2.240861723110E+01  0.000000000000E+00 -1.457893942328E+01  2.468797771670E+01  7.047102433720E+01  5.541716332473E+01  2.160928266408E+01 -2.118055766625E+01      119
 Ca  2.311904903012E+01  1.872713662913E+01  2.088439048444E+01  0.000000000000E+00 -2.469207218993E+01  3.893787045123E+01 -6.255206452065E+00  4.342327966312E+01 -6.924522157666E+00 -2.000133348714E+01      120
 Ca  3.142512504218E+00  1.259297036920E+01  1.762245138125E+01  0.000000000000E+00 -4.466458031001E+00  3.167067733952E-01  6.620402002492E+00  4.431956522285E-01  3.337935275280E+00 -7.614886370333E-01      121
 Si  1.272375590079E+00  1.699794399435E+01  1.449392458530E+01  0.000000000000E+00  5.172375119882E+00 -2.799876074713E+01  6.450972121926E+01 -2.387417718788E+01  5.836868324167E+00  7.334544334595E+01      125
 Si  2.618290845136E+00  1.896490896263E+01  1.622398283894E+01  0.000000000000E+00  6.227055977537E+00  1.570389474997E+01 -3.651550682434E+01  1.343427060104E+01 -5.837882026012E+00  4.167710868201E+01      126
 Si  3.120575927272E+00  2.095722994118E+01  1.384344944892E+01  0.000000000000E+00 -5.289554660713E+00 -3.900586078918E+01 -2.353001124488E+01 -2.576560278062E+01 -2.984274048816E+00 -2.178965913145E+01      127
 O   1.294572104976E+00  1.822050394234E+01  1.563880028395E+01  0.000000000000E+00 -3.651353447841E+00  4.980419525652E+00  5.775975470041E+00  4.274732825088E+00  4.388076652698E-01 -1.693009683309E+01      128
 O   2.988982918584E+00  1.691604024360E+01  1.444086813809E+01  0.000000000000E+00 -5.876749745209E+00 -1.764654391300E+01 -4.174717247185E+00 -1.506448377226E+01 -8.221534905700E-01 -3.343668388565E+01      129
 O   7.018129542461E-01  1.546443739732E+01  1.537552424849E+01  0.000000000000E+00  1.018944440953E+01  2.301897059686E+01 -2.017179093495E+01  2.288662248060E+01  6.561335880122E+00  2.952933334559E+01      131
 O   4.049364741622E+00  1.821830367584E+01  1.659753775453E+01  0.000000000000E+00 -5.355819205314E+00  1.537302286260E+00 -9.897162314969E+00  1.400538337176E+00 -2.414648528781E+00 -2.409611061023E+01      132
 O   2.085341770847E+00  4.793951165533E+00  9.150108903829E+00  0.000000000000E+00  1.895705085167E+01  4.530234727524E+00 -2.073861779823E+01  8.792224642695E+00 -3.739512432036E+00  2.479483711164E+00      133
 O   3.327178338329E+00  2.031186438057E+01  1.528051426227E+01  0.000000000000E+00 -5.816243228631E+00 -5.420790807549E+01  4.889575849313E+01 -4.078033886775E+01  1.095215310267E+01 -2.829796210493E+01      134
 O   1.451547890164E+00  2.115329196954E+01  1.350519623533E+01  0.000000000000E+00  3.094524625732E+01  1.773586909226E+01 -2.793579681910E+01  1.132336247426E+01 -4.294334703960E+01  2.058459344033E+01      135
 O   8.179496400533E+00  1.629996635195E+01  1.284296248585E+01  0.000000000000E+00 -1.292868966411E+01  3.205979547890E+00 -1.066290054233E+01  2.526034359515E+00 -6.791046590796E+00 -2.576408084073E+01      136
 Si  9.090444485804E+00  1.376911507313E+01  2.596686195259E+01  0.000000000000E+00  2.010045490032E+00  3.281417327479E+01  3.531665681557E+01  6.188350543875E+01  1.236360823238E+01  3.044575839796E+00      139
 Si  8.528154780016E+00  1.601476375338E+01  2.447224062468E+01  0.000000000000E+00  4.532595673041E+00  6.471719347907E+01 -8.393511343225E+01  9.889466718108E+01 -2.924994281507E+01  8.511624233582E+00      140
 O   7.961957704591E+00  1.476747944939E+01  2.511595425072E+01  0.000000000000E+00 -3.045907673920E+00 -8.515478301754E+01  7.414982155939E+01 -1.448279404639E+02  2.350608450571E+01 -5.649411947191E+00      142
 O   8.107190208443E+00  1.267234878629E+01  2.669794634075E+01  0.000000000000E+00 -1.092187453709E+01 -1.595958187081E+01 -3.770408354337E+01 -3.362344799637E+01 -1.144935168495E+01 -1.707198178107E+01      143
 O   7.220935161258E+00  1.689386205116E+01  2.426907539262E+01  0.000000000000E+00 -1.729619689158E+01  3.638118300478E+01  1.443066904945E+01  5.226381454648E+01  4.293650411227E+00 -4.046561252396E+01      148
 O   1.346354377720E+01  1.510276529194E+01  7.788442539293E-01  0.000000000000E+00 -1.783801407938E+01 -1.399218756779E+01  1.055202496021E+02 -6.380264438723E+01  2.386752478531E+01 -2.000983874480E+01      150
 Ca  5.855661877771E+00  1.105567521974E+01  8.090930250058E+00  0.000000000000E+00 -2.805872652880E+00 -1.317609044683E+00  2.159470995560E+00 -9.642724361456E-01  1.562877394075E+00 -5.297576500438E+00      151
 Ca  1.299949331060E+01  2.238066693946E+01  1.803093297147E+00  0.000000000000E+00 -3.782789225739E+00 -1.535693082459E+00 -2.427373470274E+01 -7.282760866086E+00 -1.845507412560E+01 -6.512665050907E+00      152
 H   7.354283614781E+00  1.984114995911E+01  1.497113723684E+01  0.000000000000E+00 -1.185859524128E+01 -1.378033084993E+01  4.015165014697E+01 -1.039794693093E+01  1.972372693609E+01 -3.199334956485E+01      155
 H   1.172805921190E+01  1.209837186102E+01  3.602522256681E+01  0.000000000000E+00  8.113499304529E+00  4.149097525466E+00  2.402255541460E+01  1.235473363882E+01  7.820574926384E+00  8.369682477455E+00      156
 H   1.778080964849E+01  1.762138231292E+01  1.485589673000E+01  0.000000000000E+00  4.810229033349E+01 -3.242318859715E+01  3.093867266486E+01 -2.733471942796E+01  3.703005341443E+01  4.767099276412E+01      159
 H   1.710079102295E+01  4.241625641716E+00  1.142416348891E+01  0.000000000000E+00  1.649237071246E+01 -3.156728753588E+00 -3.468913442973E+00 -8.502161297892E+00 -5.192604598364E+00  4.090715009192E+00      160
 H   1.603910032145E+01  1.824162481900E+01  2.118251427402E+01  0.000000000000E+00  2.334608651095E+01 -1.465570047866E+01 -9.067509427813E+00 -1.701847218465E+01 -6.865789938677E+00  2.655202240707E+01      164
 H   1.802013072164E+01  7.225433853981E+00  2.645714468082E+00  0.000000000000E+00 -2.883840691174E+01  1.121729071685E+01  5.328162006306E+00  4.155555002663E+00  3.088905852388E+01 -1.156317924735E+01      168
 H   5.897918384725E+00  2.234907055040E+01  2.993251404158E+01  0.000000000000E+00 -2.460807674633E+01  4.740917532084E+01  3.326857529474E+01  6.349596520317E+01  6.555257657003E+00 -9.324775411230E+01      169
 Si  1.223648922879E+01  7.303355572570E-01  1.980222020866E+01  0.000000000000E+00 -1.837655604287E+01 -1.589418796309E+02 -1.574878317785E+01  2.554195032277E+01 -9.731727740206E+00 -8.578410528271E+01      177
 Si  1.084868393044E+01  3.439856958091E+00  1.909864647052E+01  0.000000000000E+00 -2.136776181048E+01 -6.946909108470E+00 -8.839154406143E+01 -4.140484734135E+01 -5.020941798813E+01 -6.919673450287E+00      178
 Si  8.001790083268E+00  3.965979357954E+00  2.016182867562E+01  0.000000000000E+00 -1.580182337679E+01  3.070601959575E+00  4.452637770986E+01  1.561000324316E+01  1.767154821792E+01 -7.831960683576E+00      179
 O   1.138504380703E+01  1.873831581249E+00  1.897613488469E+01  0.000000000000E+00 -1.749003946157E+01  7.316658687575E+00  4.249926433854E+00  6.014674431147E+00  2.549813169020E+00 -3.689863478424E+00      180
 O   1.283048996025E+01  1.486843677029E+00  2.104166403818E+01  0.000000000000E+00  1.467338090888E+01 -3.480014585648E+00  7.750508663175E+01  3.880859430688E+01  4.725996166903E+01 -1.731382632695E+00      182
 O   1.121429772486E+01  3.782819491401E+00  1.738718283008E+01  0.000000000000E+00 -6.047302778056E+00  6.430149567890E+00  3.459019363879E+01  2.859342003426E+01  2.230980910575E+01 -2.303287117991E+00      184
 O   1.141264907611E+01  4.265331974183E+00  2.023433160746E+01  0.000000000000E+00  1.845443859221E+01  6.988972679824E+00  5.018211027782E+01  3.307751174554E+01  2.830391562270E+01  6.895447027853E+00      185
 O   9.170385054612E+00  3.533653283149E+00  1.922278352751E+01  0.000000000000E+00  1.846565291623E+01 -4.356419507164E+00 -4.208396515024E+01 -2.330858775620E+01 -2.007649748020E+01  7.135408446238E+00      187
 O   6.571780695995E+00  4.198027207367E+00  1.948523532707E+01  0.000000000000E+00  7.512071706147E+00  4.801900006275E+00  1.952316960305E+01  2.271262938507E+01  6.584574780255E+00  4.773234791056E+00      188
 Ca  1.161059613388E+01  3.021110959624E+00  2.250799472166E+01  0.000000000000E+00 -2.547825194634E+00 -4.461966417661E+00 -2.579067687349E+01 -8.543590976384E+00 -1.330394541586E+01 -7.522234843959E-01      190
 O   1.520362601746E+01  2.066750039520E+01  8.862369228283E+00  0.000000000000E+00  1.685145092265E+01 -1.602256060416E+01  2.945704608086E+00 -6.870586444485E+00  5.053433237281E+00  2.290752010103E+01      193
 O   4.664922311938E+00  1.199555095273E+01  1.272856341220E+01  0.000000000000E+00  5.124775355346E+00  8.051711898651E-01 -1.328722089684E+01  8.543728077402E-01 -4.854224279376E+00  1.347971065309E+01      194
 Si  1.772699432068E+01  1.722221755873E+00  1.994452175364E+01  0.000000000000E+00 -2.190659927973E+01 -1.690590614371E+00 -3.745510018889E+01  4.755283224125E+01 -3.329066279605E+01 -8.232278279077E+00      196
 Si  1.527041082795E+01  3.434548289502E+00  1.982038859660E+01  0.000000000000E+00  3.307441575478E+01  3.901631921703E+00  8.221734213152E+00  2.784456014459E+01  6.334349023539E+00  7.761124879363E+00      197
 O   1.893243360506E+01  2.787956663698E+00  2.040836009244E+01  0.000000000000E+00  8.644971817595E+00  5.222457333357E-01 -9.962820455495E+00 -5.846066370887E+00 -9.242312265090E+00  1.217620924838E+00      202
 O   1.622128494357E+01  2.224926287683E+00  2.050367327311E+01  0.000000000000E+00 -3.561223887128E+00  1.967192585388E+00 -5.240540176388E+00 -2.305027076785E+00 -4.146003222306E+00 -8.825948109738E-01      205
 O   1.452557254160E+01  4.637486159327E+00  2.067341638895E+01  0.000000000000E+00  4.295697707727E+00 -4.323292708356E+00  3.031341095623E+01 -1.927277565054E+01  2.129883332023E+01  1.371459789773E+00      206
 Ca  1.336544060819E+01  5.206794780912E+00  1.894173695546E+01  0.000000000000E+00 -1.247322269705E+01  2.603869741868E+00 -7.777314175816E+00  9.472586839326E+00 -5.487734886856E+00 -4.859212108605E+00      209
 O   2.262542684909E+01  1.877131922285E+01  1.420511018987E+01  0.000000000000E+00 -3.504607301401E+01  1.158467513690E+01 -8.886098650992E+00  8.766650062253E+00 -1.415348225494E+01 -2.907618178614E+01      210
 O   1.308226571651E+01  1.736661179209E+01  4.260049971640E+00  0.000000000000E+00 -1.513489537056E+01 -2.396944202292E+01  5.619244197093E+00 -5.890954114291E+00  1.623961418217E+01 -2.009146260367E+01      212
 Si  1.299544533307E+01  3.838789328441E+00  1.399262574304E+01  0.000000000000E+00 -3.928635979428E+00  8.251815746813E+00  2.037565970957E+01  3.343726970837E+01  1.892359423767E+01 -9.752742465983E-01      213
 Si  1.153314405472E+01  5.263424645118E+00  1.649221360880E+01  0.000000000000E+00  2.582585340960E+01 -2.787356847458E+01  2.442668381374E+01 -8.733797409806E+01  1.708178598006E+01  1.178624256077E+01      214
 Si  9.635973939631E+00  6.914535025731E+00  1.478993093264E+01  0.000000000000E+00  1.029393988831E+01  1.483712596801E+01 -2.069337614776E+01  3.173605564063E+01 -1.348220178924E+01  7.386675011411E+00      215
 O   1.267116165022E+01  4.497530587247E+00  1.564078765159E+01  0.000000000000E+00  1.528244248523E+01 -1.957737511960E-02 -3.124831022452E+01 -1.221647140268E+00 -2.531537407011E+01  5.347624333570E+00      216
 O   1.353482404106E+01  2.440016538336E+00  1.466462093768E+01  0.000000000000E+00  1.387718923112E+00  9.205141571670E+00 -7.699975302895E+00  1.073790959046E+01 -7.106751090810E+00  1.614720310203E-01      217
 O   1.380964127287E+01  4.969052856327E+00  1.309272344011E+01  0.000000000000E+00 -5.291204954140E+00 -6.237498853691E+00  5.833785549523E+00 -1.643489208319E+01  6.153225955640E+00 -1.903907318899E+00      218
 O   1.150148617678E+01  3.853177409371E+00  1.315419537112E+01  0.000000000000E+00  1.315363735238E+01 -1.909074417922E+00 -2.778214500817E-01 -6.429240901537E+00 -2.429156233107E-01  4.384399783923E+00      219
 O   1.189616730279E+01  6.457354769836E+00  1.741171348739E+01  0.000000000000E+00  1.710654350067E+01  9.267353700606E+00  2.673238250766E+01  2.498863902832E+01  1.826430781461E+01  9.285597407791E+00      220
 O   1.051626853610E+01  5.731554136424E+00  1.549130372184E+01  0.000000000000E+00 -4.458599754479E+01  8.356565301861E+00 -2.530768880424E+01  2.258621101383E+01 -1.718011965114E+01 -2.430016481391E+01      222
 O   1.062044223317E+01  7.144169388523E+00  1.353403527024E+01  0.000000000000E+00 -1.533990671990E+00  5.504335139797E+00 -2.400090735496E+00  1.042750554612E+01 -1.883401698143E+00 -1.031886333968E+00      223
 O   2.142110325936E+01  2.096004468609E+01  1.261608674519E+01  0.000000000000E+00  1.174153871889E+01 -2.703467862349E+01 -2.034159671606E+01 -1.627247726569E+01 -3.453839946693E+01  1.148881891150E+01      224
 Ca  1.603669618533E+01  6.481438087292E+00  6.395515665356E+00  0.000000000000E+00  2.253927339625E+00  2.751764057848E+00 -6.091111794216E+00  2.715284772038E+00 -1.527340630309E+01  9.109538733043E-01      225
 Ca  1.690022459026E+01  3.969243730765E+00  1.676445257906E+01  0.000000000000E+00  3.581064908185E+00 -3.055150469951E+00  5.818468204268E-01 -8.108929548327E+00  5.865590836305E-01  1.167527231459E+00      226
 Si  2.053238338729E+01  2.367183924479E+00  2.003510120961E+01  0.000000000000E+00  1.149514249986E+00 -1.939928165542E-01  4.318361191270E+01 -6.366007325514E+00  4.425545279571E+01  1.258991086038E+00      228
 Si  2.261251056471E+01  4.741738798615E+00  2.064799340497E+01  0.000000000000E+00  4.529372392456E+01 -1.934001602533E+00  1.050415080234E+01 -8.421647423088E+00  1.150354982844E+01  9.497884255365E+00      229
 O   2.118575276334E+01  1.320687850908E+00  2.117416295038E+01  0.000000000000E+00  1.920002768324E+01  2.303453097525E+01 -2.968139619442E+01  1.091168894278E+01 -2.969764249567E+01 -8.294782577564E+00      230
 O   2.139093293837E+01  3.777487819600E+00  2.019878576436E+01  0.000000000000E+00  5.244079210905E+00 -1.118519166630E+00 -6.805330371268E+00 -6.606493677045E+00 -7.206985969032E+00  8.634181421471E-01      236
 O   2.311677152824E+01  4.336279952243E+00  2.225858102148E+01  0.000000000000E+00  1.729881747190E+01  1.940621906743E+00  2.116071579773E+01  1.094459961412E+01  2.197657757241E+01  3.229116945948E+00      237
 H   1.258597051802E+01  1.688306414379E+01  5.027524118799E+00  0.000000000000E+00  1.419651589682E+01  1.613318679784E+01 -9.463393850182E+00  4.804221855017E+00 -2.369078560031E+01  1.904348084728E+01      243
 H   1.795868999820E+01  1.886740364142E+01  7.200213448484E+00  0.000000000000E+00  1.620411314374E+00  5.728777136937E+00 -9.640804178383E+00  2.186226518957E+00 -2.404598347142E+01  1.702404481423E+00      247
 H   1.434785007937E+01  7.172954182342E+00  8.450778591722E+00  0.000000000000E+00  1.539424360652E+01  1.358746704752E+01  6.931616436879E+00  1.600800349786E+01  1.176859532700E+01  7.696080140962E+00      248
 H   6.299630491583E+00  7.368815128413E+00  7.687320011010E+00  0.000000000000E+00 -5.313854834842E+00 -1.634043693642E+00 -4.595727456667E-01 -1.704672537728E+00 -3.766121974310E-01 -6.215731851177E+00      249