     8448
Lattice="     49.70      0.00      0.00      0.00     49.70      0.00      0.00      0.00     49.70" pbc="T T T" config_type=md Properties=species:S:1:pos:R:3:charge:R:1:forces:R:3:id:I:1
 Si  1.033887156397E+01  1.775609105432E+01  1.637364676280E+01  0.000000000000E+00  2.562724361758E+01  1.894646515532E+01  8.881580367968E+00  1.747134135030E+01  5.608128722926E+00  4.401250836027E+01        1
 Si  1.235296627472E+01  2.028010341118E+01  1.699065630238E+01  0.000000000000E+00 -3.181580953771E+01  1.515166975949E+01 -6.775441305010E+01  1.269405821416E+01 -4.926048555604E+01 -5.223262924756E+01        2
 Si  1.080874519335E+01  2.267223483465E+01  1.782215858654E+01  0.000000000000E+00  2.980717450539E+01  1.471767024086E+01  6.689864323062E+01  1.156924559798E+01  4.057254821010E+01  6.252300781034E+01        3
 O   1.100710675627E+01  1.942619108370E+01  1.637386961345E+01  0.000000000000E+00  1.281046187606E+00 -9.374097413917E+00  2.201334340524E+01 -7.901201431507E+00  1.479816479819E+01  2.260889130861E+00        4
 O   8.921591738074E+00  1.774143462991E+01  1.562781860947E+01  0.000000000000E+00 -1.622820738382E+00  8.163594309235E+00  2.704420810471E+00  7.191029007933E+00  1.543896749886E+00 -3.227133553220E+00        5
 O   1.143836027810E+01  1.699910079318E+01  1.542335152926E+01  0.000000000000E+00 -1.122685049091E+01  6.184105503182E+00  9.053263004189E+00  5.610863435075E+00  6.714136271734E+00 -1.668476586197E+01        6
 O   1.048364817271E+01  1.730376124713E+01  1.788098316706E+01  0.000000000000E+00 -1.233034742340E+00 -6.670603294202E-01  2.150364481869E+01 -6.893122455535E-01  1.260762031952E+01 -2.035182642470E+00        7
 O   1.245473758108E+01  2.141143040748E+01  1.563364527714E+01  0.000000000000E+00  8.494940771669E+00 -1.614027134020E+01  2.706878009436E+00 -1.178488648387E+01  2.156467968531E+00  1.460398759621E+01        8
 O   1.380275432795E+01  1.972257694691E+01  1.719836745648E+01  0.000000000000E+00  2.282143374709E+01 -2.320523566453E+01  7.918501261716E+00 -2.023529536465E+01  6.355087355681E+00  3.260925119883E+01        9
 O   1.217090388139E+01  2.144349614460E+01  1.803407996136E+01  0.000000000000E+00 -3.543817443322E+01  4.994517813145E+01  3.235126483673E+01  4.200412703382E+01  2.183333641711E+01 -6.243729834989E+01       11
 O   1.893214225779E+01  1.806547538217E+01  2.091926853647E+01  0.000000000000E+00 -5.969879277642E+01 -1.039084833810E+01  2.998312413494E+01 -1.203228490301E+01  2.713502006372E+01 -5.696592897741E+01       13
 Ca  3.243312473667E+00  1.615734828236E+01  1.616304995887E+01  0.000000000000E+00 -1.349969199423E+00  2.912237018710E+00  7.765160314787E+00  2.913264701788E+00  1.275371232686E+00  1.247121017902E+00       14
 Ca  2.038145168709E+01  1.445178561096E+01  1.856671391844E+01  0.000000000000E+00  4.548523355656E+00  3.553120898064E+00 -1.105837924276E+00  4.564818563455E+00 -1.213924140071E+00  3.225201295353E+00       15
 O   7.644441752106E+00  4.087334389321E+00  1.629443162490E+01  0.000000000000E+00 -1.164745618956E+01  1.072001287531E+00 -5.163006379628E+01  1.540182073502E+00 -2.422195658209E+01 -6.095762213524E+00       16
 O   9.606186568715E+00  1.658194864669E+01  2.029320791422E+01  0.000000000000E+00  1.440361824791E+01 -3.006910920548E-01 -1.325409068520E+01 -3.679897326326E-01 -6.274082858604E+00  2.486315005490E+01       18
 Si  2.045960499069E+01  1.985804625946E+01  1.811500430080E+01  0.000000000000E+00 -4.971891340244E+00 -2.752741923811E+01  3.361632905484E+01 -2.511119731382E+01  3.796724539937E+01 -4.825706472657E+00       19
 Si  1.843162452311E+01  2.206113062709E+01  1.896241715230E+01  0.000000000000E+00 -1.380526002049E+01  2.938648506976E+01 -8.130089629062E+01  2.525884996341E+01 -7.902513597211E+01 -1.652375482536E+01       20
 O   1.933191410811E+01  2.075187485522E+01  1.891100165035E+01  0.000000000000E+00 -1.785876085838E+01 -1.059164863925E+01  9.779645575747E+00 -9.652076561480E+00  9.997316470783E+00 -1.917051608703E+01       22
 O   2.167469114744E+01  2.084181945300E+01  1.795970980077E+01  0.000000000000E+00  3.567060565408E+01  3.617167063724E+01 -1.782254436426E+00  3.116967350759E+01 -2.150915292297E+00  3.429992694079E+01       23
 O   1.996290389645E+01  1.949526042216E+01  1.667995460171E+01  0.000000000000E+00 -1.140715403693E+01 -2.366704137879E+01 -1.895090858964E+01 -2.024928968409E+01 -2.268082713406E+01 -1.113993433917E+01       24
 O   2.089676621330E+01  1.859053728289E+01  1.918328416076E+01  0.000000000000E+00  1.903141910033E-01  1.982295536050E+01 -2.220886658464E+01  2.045499706652E+01 -2.419259856614E+01  1.693105539487E-01       25
 O   1.872474188661E+01  2.280192523998E+01  2.029138033513E+01  0.000000000000E+00  2.689042796843E+01  2.123186498232E+01  7.374511690846E+01  1.889418735682E+01  6.805147095482E+01  3.274563312649E+01       26
 O   2.133425977022E+01  1.717213919773E+01  2.120191134785E+01  0.000000000000E+00  3.207282025149E+01 -2.723023637135E+01  2.917282824856E+01 -3.362033412836E+01  2.935493342444E+01  2.581570393133E+01       27
 O   1.905405745353E+01  2.322222390214E+01  1.775512884019E+01  0.000000000000E+00  1.611210661068E+01 -3.268126399637E+00 -1.395687764797E+01 -2.498727319834E+00 -1.497793403641E+01  1.963670720322E+01       29
 Ca  5.326499871562E+00  1.008649542527E+01  1.507372315806E+01  0.000000000000E+00 -2.853248949988E-01  1.281708386230E+01 -3.956851610219E+01  1.915444023797E+01 -1.398205962298E+01 -5.403038238088E-01       32
 Si  1.406265230929E+01  1.979312625760E+01  1.301063401901E+01  0.000000000000E+00  4.041972165831E+01 -2.382405300325E+01 -7.834258187788E+00 -1.566028683092E+01 -8.467723312722E+00  5.689059478144E+01       37
 Si  1.224028421367E+01  2.175503545849E+01  1.403822936527E+01  0.000000000000E+00 -1.112394847843E+01 -4.287508762374E+01  2.024912938423E+01 -2.766671262230E+01  1.765572368803E+01 -1.977093745228E+01       38
 O   1.259425161965E+01  2.029066286312E+01  1.324155517232E+01  0.000000000000E+00 -3.771260861861E+01  2.824689751881E+01 -8.508541735407E+00  1.843374238020E+01 -8.092608016013E+00 -6.075897562465E+01       40
 O   1.403374687121E+01  1.855004550117E+01  1.414578832964E+01  0.000000000000E+00  1.600602461520E+01  2.172701252243E+00  4.032522202292E+00  1.656846179479E+00  4.000582683747E+00  2.115703579590E+01       41
 O   1.519170776317E+01  2.098597266292E+01  1.294838861091E+01  0.000000000000E+00 -2.039814744037E+01 -4.336411338389E+01 -7.104317849835E+00 -2.675574779786E+01 -8.335146856842E+00 -2.817819900378E+01       42
 O   1.420451495451E+01  1.873474980290E+01  1.165359240562E+01  0.000000000000E+00 -3.243818771899E+00  4.343534345879E+01 -1.782892635050E+01  2.701812375356E+01 -2.173160362521E+01 -4.278367356581E+00       43
 O   1.305495349337E+01  2.288899830613E+01  1.346184111861E+01  0.000000000000E+00  2.937123723627E+01  6.841246586957E+01 -1.763854052521E+01  4.023582569020E+01 -1.710541108149E+01  5.149602407173E+01       44
 O   1.063479303856E+01  2.205300245755E+01  1.378092788238E+01  0.000000000000E+00  6.822085112369E+00  1.574937221397E+01  5.454949909934E+00  9.841787443289E+00  4.209605029718E+00  1.414672191581E+01       46
 O   8.519615374689E+00  2.133774220931E+01  1.450368535454E+01  0.000000000000E+00 -1.304276551758E+01  1.618219697277E+01  1.723899488213E+00  1.099935930127E+01  1.012636459299E+00 -3.266616579165E+01       47
 O   1.646132995703E+01  1.574652837687E+01  1.079394490072E+01  0.000000000000E+00 -4.832255045002E+00  1.391316595232E+01  1.402525924611E+01  9.537209922702E+00  2.138925316987E+01 -4.622423667408E+00       48
 Ca  6.602565386077E+00  2.074472497728E+01  1.323719815538E+01  0.000000000000E+00 -1.850395598644E+00  2.421844299958E+01 -1.283134245862E+00  1.545377580813E+01 -6.400129134560E-01 -5.813792904495E+00       49
 Si  2.047590436288E+01  2.015511249568E+01  2.312765294661E+01  0.000000000000E+00 -3.262309410960E+01  1.890954995379E+01  4.494152661103E+01  2.169839085749E+01  3.978866350742E+01 -3.211199466863E+01       51
 Si  1.972537934138E+01  2.249882520347E+01  2.168732846273E+01  0.000000000000E+00 -3.677913270465E+01  3.414457954122E+01 -7.460231428771E+00  3.291303901582E+01 -6.785339889136E+00 -4.195038602484E+01       52
 O   1.946366865889E+01  2.097328677375E+01  2.204563539288E+01  0.000000000000E+00  1.103602971315E+01 -3.776828377369E+01  2.110651819875E+01 -3.969934815042E+01  1.863454010021E+01  1.189199323488E+01       54
 O   1.964883217780E+01  1.876974819944E+01  2.374890498590E+01  0.000000000000E+00  7.420831640255E+00  2.956822110846E+00 -1.292842203638E+01  3.741194960344E+00 -1.069642558541E+01  7.088825435407E+00       55
 O   2.184383845134E+01  1.965348511703E+01  2.257165588935E+01  0.000000000000E+00  3.715983066677E+01 -1.653458490145E+01 -2.196998984371E+01 -1.898965798922E+01 -2.126157297791E+01  3.343369255305E+01       56
 O   2.089172871415E+01  2.092211192368E+01  2.455998339279E+01  0.000000000000E+00 -1.809602553627E+01 -4.680996149501E+00 -1.313533841665E+01 -5.494913138445E+00 -1.117345734239E+01 -1.812234290537E+01       57
 O   1.702528029608E+01  2.230257708766E+01  1.822532640316E+01  0.000000000000E+00 -2.263627907574E+01 -3.037050143074E+01  1.848703929657E+01 -2.481831132910E+01  1.726976071134E+01 -2.965280748891E+01       58
 O   1.547347027107E+01  1.214856775365E+01  1.162022013829E+01  0.000000000000E+00  1.752782115470E+01  3.409723149604E+01  2.898284267363E+01  3.261432492495E+01  3.859351622811E+01  1.376148460180E+01       59
 H   3.549202678302E+00  5.676043202180E+00  1.607331922015E+01  0.000000000000E+00  6.341890543818E-01  3.135961061064E+00  1.780019729267E+01  8.880359327972E+00  4.090756380014E+00 -1.301204902151E+00       70
 H   1.414810641881E+01  1.882823232156E+01  1.743783984156E+01  0.000000000000E+00 -4.497388749668E+00  6.691366837924E+00 -3.892276966301E-01  6.197235154529E+00 -3.157979958016E-01 -5.985103427448E+00       73
 H   1.475479909831E+01  9.022657557038E+00  1.638134301605E+01  0.000000000000E+00  5.908024900819E+00  7.516904731570E+00 -7.847254552542E+00  1.364753056939E+01 -7.068081309488E+00  3.612796430732E+00       83
 Si  2.343417015285E+00  2.149008214232E+01  2.070801829311E+01  0.000000000000E+00 -1.039427092285E+00 -7.464431475416E+01 -3.166127960422E+00 -7.192787003649E+01 -1.502357077354E+00 -5.306832142406E+01       89
 Si  2.395836337121E+00  2.123666365571E+01  1.754947035338E+01  0.000000000000E+00 -8.264432623019E+00  3.581770984256E+00  8.902289670087E-01  2.959889779291E+00 -5.370210410214E-01 -3.940240107572E+01       90
 O   1.480091566207E+00  2.119833895417E+01  1.901102941312E+01  0.000000000000E+00  2.588577204126E+01  7.177154276724E+00  2.121486834755E+00  6.436593515759E+00  6.576509732993E-01  5.435326258787E+01       92
 O   2.166417603286E+00  1.977685865283E+01  2.120528930447E+01  0.000000000000E+00  1.412765579172E+00  5.683997867501E+01 -1.808248518072E+01  6.094538131773E+01 -3.061117042621E+00  5.479028313783E+00       95
 O   1.437053272719E+00  2.027546616951E+01  1.652763314808E+01  0.000000000000E+00  3.807160917467E+01 -1.385092120965E+01  2.355792322138E+00 -1.129063778865E+01 -4.288572065061E+00  1.506401558693E+01       96
 O   3.934620774332E+00  2.078855057615E+01  1.738624579277E+01  0.000000000000E+00 -3.166609624274E+00  7.061003842230E+00  4.161300393029E+00  5.905382768029E+00  9.659937179859E-01 -1.656329207378E+01       97
 O   1.145789710479E+01  1.485660820339E+01  2.124437674707E+01  0.000000000000E+00 -5.638920840406E+00 -4.548325206088E+00 -3.250375905875E+01 -6.503929626703E+00 -1.753050848458E+01 -7.311571822441E+00       98
 O   3.604901056477E+00  1.241685312407E+01  1.988988877078E+01  0.000000000000E+00  3.447140370964E-02  3.741301118614E+00 -4.914592856401E+00  5.992988913027E+00 -7.672647991819E-01 -1.503043987380E+00      101
 Ca  2.150745275712E+01  2.303243457117E+01  1.920121640835E+01  0.000000000000E+00 -3.497242625029E+00  4.044371916600E+00 -1.289902284331E+01  3.371630565865E+00 -1.444830986307E+01 -3.745213942820E+00      102
 O   1.737386870130E+01  4.266589162598E+00  1.074678578204E+01  0.000000000000E+00  3.112657975196E+01  1.063617458806E+01  2.122268200052E+01  2.679064833340E+01  3.430980183698E+01  7.643912252459E+00      105
 Si  5.358591052984E+00  1.616190241843E+01  1.914653804538E+01  0.000000000000E+00 -3.190485499932E+00 -7.289949606377E+00 -3.676902523558E+00 -8.636192316580E+00 -1.029064205693E+00 -9.622737545646E+00      107
 Si  8.140092912231E+00  1.702022230510E+01  2.056002097574E+01  0.000000000000E+00 -2.595630230490E+01  1.300328851374E+01  2.342533802024E+01  1.570766114589E+01  9.274524973013E+00 -5.427235784789E+01      108
 Si  7.191738429596E+00  1.965540794910E+01  1.959287221225E+01  0.000000000000E+00 -1.707496135239E+00 -3.841916987767E+01 -3.686935650862E+01 -3.829693526907E+01 -1.353322602246E+01 -4.666678778460E+00      109
 O   7.038938343013E+00  1.650826263990E+01  1.940112318172E+01  0.000000000000E+00 -9.252753077405E+00 -2.295704282207E+00  8.901516666251E+00 -2.697996908546E+00  3.229566988786E+00 -2.170027218601E+01      110
 O   5.025621896259E+00  1.680715164224E+01  1.760830291491E+01  0.000000000000E+00  4.485681087814E+00 -1.167381953479E+01  3.295117259536E+01 -1.223027880738E+01  9.404661840658E+00  1.500143142837E+01      111
 O   4.093460051101E+00  1.657959474324E+01  2.023407349271E+01  0.000000000000E+00  8.503030706297E+00  8.915658995979E+00 -1.858326171424E+01  1.088085095892E+01 -3.729829747216E+00  3.415706183540E+01      112
 O   5.304530381470E+00  1.442776085739E+01  1.925251139489E+01  0.000000000000E+00 -2.135671225686E-01  8.488164589811E-02  4.028791298227E+01  1.132666995955E-01  1.110028993294E+01 -5.808799554029E-01      113
 O   7.530273415000E+00  1.665110419777E+01  2.203702177514E+01  0.000000000000E+00  3.307308980277E+00 -1.153573488030E+01  3.518899416611E+01 -1.526705002443E+01  1.202443551463E+01  7.313193480479E+00      114
 O   1.305772614930E+01  1.339185651161E+01  3.668780768037E+01  0.000000000000E+00 -1.637683956733E+01 -1.410589021997E+01 -6.195939655685E+01 -3.864394657321E+01 -2.205225342609E+01 -1.679590175898E+01      115
 O   8.176812198370E+00  1.868632572463E+01  2.050641676136E+01  0.000000000000E+00 -5.043778053416E+00 -7.032824517111E+00 -7.258486264109E+00 -7.717837775205E+00 -2.894278396697E+00 -1.152645765885E+01      117
 O   5.525864882255E+00  1.963291540700E+01  1.973995647731E+01  0.000000000000E+00  1.138435639584E+01  6.509223516711E+00  6.079956567275E-02  6.544712604181E+00  1.701980372619E-02  4.044762419008E+01      118
 O   6.706111497029E+00  9.966082803505E+00  2.163087735940E+01  0.000000000000E+00  1.848573773688E-01  3.812478356937E+00 -1.468697421280E+01  8.274790948482E+00 -4.553328327308E+00  2.747201460209E-01      119
 Ca  2.347875762317E+01  1.931393975836E+01  2.057992069665E+01  0.000000000000E+00 -1.434462249893E+01  3.636051872109E+00  2.047144725343E+01  3.874386071050E+00  2.335500487798E+01 -1.180007814926E+01      120
 Ca  2.993460410373E+00  1.232514936624E+01  1.764241739549E+01  0.000000000000E+00 -1.153147159167E+00  9.514669662956E+00  1.911508731811E+01  1.361945146352E+01  3.833270856837E+00  1.236934893385E+00      121
 Si  1.122055532721E+00  1.703116905218E+01  1.383065090397E+01  0.000000000000E+00 -1.768710586832E+02  1.060989596261E+01  1.164568845281E+01  8.616071318216E+00 -1.515741979560E+02  2.229198954517E+01      125
 Si  2.224414912532E+00  1.937229802734E+01  1.533078358858E+01  0.000000000000E+00 -5.302087851695E+00  1.203918557932E+01 -1.714888253257E+00  9.527529900623E+00 -1.696275450705E+00 -8.850164779074E+00      126
 Si  3.111994054540E+00  2.130157876828E+01  1.288721793995E+01  0.000000000000E+00 -4.829564885330E+00 -1.852343144182E+01 -1.191644124689E+01 -1.120646974495E+01 -2.981450643469E+00  1.580255100159E+01      127
 O   9.724323809481E-01  1.849694005637E+01  1.474005341706E+01  0.000000000000E+00  3.768742286581E+01 -1.480697109116E+01 -1.527922079568E+01 -1.179954869095E+01  3.498400608861E+00 -1.007320331491E+01      128
 O   2.446743972194E+00  1.695654645640E+01  1.292312454945E+01  0.000000000000E+00  2.755439256020E+01  9.116399319013E+00 -8.648787195034E-01  6.947898508995E+00  4.451357343201E+00  8.271226526445E+00      129
 O   1.084193324593E+00  1.592246813607E+01  1.512418257198E+01  0.000000000000E+00  1.596633985982E+01 -2.536050895608E+01 -2.744296320668E+01 -2.408903973256E+01  1.397655718923E+01  1.109450948457E+01      131
 O   3.277838443393E+00  1.829710796270E+01  1.580679942454E+01  0.000000000000E+00  2.774121181960E+00  8.171978397279E+00 -1.055352087244E+00  7.059739915774E+00 -4.627740289826E-01  1.734933025211E+01      132
 O   2.456086900614E+00  4.900174960523E+00  9.945639075818E+00  0.000000000000E+00  5.020018160595E+00 -1.223006827523E+01 -2.748176290431E+01 -2.481874660198E+01 -6.958713836862E+00  1.415328167929E+00      133
 O   2.833068285117E+00  2.048136324368E+01  1.428307266906E+01  0.000000000000E+00  6.944010790540E-01 -6.470913808129E+00  5.951472014551E+00 -4.512616228574E+00  8.851911684080E-01 -1.303300595171E+01      134
 O   1.713335135006E+00  2.102061122461E+01  1.178703022162E+01  0.000000000000E+00  3.017781156065E+01  1.314775634528E+01  2.866079185941E+01  7.372430788639E+00  2.489357377122E+00  4.931664618850E+01      135
 O   8.413273107666E+00  1.510422201783E+01  1.294910474737E+01  0.000000000000E+00 -9.299322730383E-01 -3.483218326492E+01  2.041944951990E+00 -2.986221926191E+01  1.326689442017E+00 -1.669493351014E+00      136
 Si  8.490907093964E+00  1.421297433533E+01  2.546754177760E+01  0.000000000000E+00  1.455237208484E+01 -3.295871509650E+01 -7.423312291306E+01 -5.905712863843E+01 -2.474940673324E+01  2.435929267286E+01      139
 Si  7.966530796172E+00  1.649999838020E+01  2.379701776284E+01  0.000000000000E+00 -3.859796539436E+01  1.059468299451E+00 -7.865190268927E+01  1.528011419168E+00 -2.633030790648E+01 -7.994274832804E+01      140
 O   7.597294648915E+00  1.498967081482E+01  2.439589032124E+01  0.000000000000E+00 -2.399125658573E+00  1.743189874483E+01 -2.036349365751E+01  2.837064903715E+01 -6.341537831177E+00 -4.733540757241E+00      142
 O   7.929519795204E+00  1.269104345092E+01  2.527886947966E+01  0.000000000000E+00  1.271391406602E+00 -8.881722658962E+00  3.135755999296E+01 -1.769120945166E+01  9.836294019935E+00  2.034837417780E+00      143
 O   7.061921398458E+00  1.769660743542E+01  2.449285203038E+01  0.000000000000E+00  3.119347996139E+00 -1.589402807156E+01  1.208650115230E+01 -2.199800606665E+01  3.484850233612E+00  7.816835366389E+00      148
 O   1.252056314903E+01  1.604986490389E+01  1.190697846593E+00  0.000000000000E+00 -1.286759254114E+01 -1.955184877478E+01  6.819063060618E+01 -2.507381688126E+01  8.804447848537E+00 -1.649471509113E+01      150
 Ca  4.784303059181E+00  1.146381082371E+01  7.284097982385E+00  0.000000000000E+00 -3.406896073481E+00  1.117339756631E+01 -2.188598176107E+00  7.099569586477E+00 -1.437503583092E+00 -8.163364987398E+00      151
 Ca  1.184022335219E+01  2.178626527655E+01  1.469003341654E+00  0.000000000000E+00 -2.571389414909E+00  1.898067487741E+01 -7.639150923195E+01  3.797085298408E+01  3.419751604622E+00 -4.731411752645E+00      152
 H   6.599549822098E+00  1.855670957107E+01  1.453541822491E+01  0.000000000000E+00 -4.882461271174E+00  5.554231171674E+01  2.211157192405E+01  4.350613598221E+01  1.003936854789E+01 -1.372857516702E+01      155
 H   1.376745544856E+01  1.399225663761E+01  3.659474036291E+01  0.000000000000E+00  1.401193972633E+01  1.521302757295E+01 -8.112878814693E+00  3.978749165233E+01 -3.052178988926E+00  1.424073296434E+01      156
 H   1.571850759852E+01  1.315143394747E+01  1.195961140472E+01  0.000000000000E+00 -1.411194821241E+01 -5.141995687873E+01 -1.371640344932E+01 -4.676012556297E+01 -1.802745796218E+01 -1.180725037809E+01      159
 H   1.698231647175E+01  3.432554431407E+00  1.080568503217E+01  0.000000000000E+00 -2.945602110135E+01 -1.188054706918E+01 -1.397176988317E+00 -3.739997491803E+01 -2.195816527320E+00 -5.953804708048E+00      160
 H   1.568410905809E+01  1.709672777058E+01  1.451522559346E+01  0.000000000000E+00  5.100811948251E+00  1.699505159796E+01  1.198816401491E+01  1.442890190610E+01  1.295354802482E+01  5.560226147698E+00      164
 H   1.975867117048E+01  6.778444624462E+00  6.483087077127E+00  0.000000000000E+00 -7.024563401000E+01 -2.107303506549E+01  2.291605639612E+01 -2.015481852812E+01  6.984185426918E+01 -2.409859125336E+01      168
 H   4.913905973081E+00  2.052253130415E+01  3.321358942321E+01  0.000000000000E+00 -2.263958497167E-01 -1.159480261617E+00 -1.170372273334E+01 -1.876498604530E+00 -1.731550068673E+00 -9.455239759151E-01      169
 Si  1.176574831673E+01  4.009969537203E-01  1.934788831531E+01  0.000000000000E+00 -5.162374871738E+01 -2.074090908884E+02  2.679302641230E+01 -2.359912408068E+01  1.629325124650E+01 -1.209732772085E+02      177
 Si  1.036731516748E+01  3.139018375574E+00  1.866668866447E+01  0.000000000000E+00 -8.512162419524E+00 -6.083632104144E-02 -1.391701302486E+01  2.186712920944E-01 -7.729386974412E+00 -2.502766957853E+00      178
 Si  8.054736437087E+00  3.937751565621E+00  2.055457423604E+01  0.000000000000E+00 -1.002338755749E+01 -6.372252978964E+00 -5.943687579343E+01 -3.326567923027E+01 -2.329157313901E+01 -4.899720056039E+00      179
 O   1.043627380916E+01  1.478475456238E+00  1.897514971536E+01  0.000000000000E+00  9.115101426197E+00  1.999070667219E+01 -1.725193025479E+01 -1.980478184690E-01 -9.488508421608E+00  1.414089652633E+00      180
 O   1.221530936835E+01  3.454173227832E-01  2.092521280219E+01  0.000000000000E+00  8.279087273329E+00  1.908638619813E+01  7.941201858426E+00  6.168734927492E+00  4.635758707650E+00  7.039393261562E+00      182
 O   1.076564169652E+01  4.000913387097E+00  1.724422893125E+01  0.000000000000E+00  2.383333803299E+00 -5.346795171778E+00 -2.875451812863E+01 -2.328649443350E+01 -1.795156168264E+01  8.641061262746E-01      184
 O   1.133160730369E+01  3.822900861584E+00  1.965930283249E+01  0.000000000000E+00  2.922646480773E+01  4.853780178854E+00  3.242168386416E+01  2.464466789901E+01  1.868783409074E+01  9.860620718682E+00      185
 O   8.777571857183E+00  3.566711690347E+00  1.891681767675E+01  0.000000000000E+00  7.921341881147E-01 -2.489751193413E+00  1.883601836286E+01 -1.272734264399E+01  8.740080256019E+00  3.384438724692E-01      187
 O   6.596764277873E+00  4.193535145678E+00  1.987073411407E+01  0.000000000000E+00 -1.245861787389E+00  2.174652342032E+00 -5.184156676688E+00  1.074725836032E+01 -1.721056674572E+00 -8.190552561410E-01      188
 Ca  1.281511665803E+01  2.883022443551E+00  2.144865359512E+01  0.000000000000E+00 -2.294073001776E+00 -2.192443027725E+00 -1.181876113536E+01 -3.710277894957E+00 -7.061459687032E+00 -2.518326074415E-01      190
 O   1.337882082442E+01  1.770415777453E+01  8.238616725644E+00  0.000000000000E+00  1.899478467833E+01 -2.869500054913E+01 -2.654032402349E+01 -1.335319728152E+01 -4.309925459052E+01  2.513574770541E+01      193
 O   5.177091074052E+00  1.118101002792E+01  1.280834220905E+01  0.000000000000E+00  1.382651305481E+01  7.643133286430E+00 -5.512710665112E+00  8.755547704318E+00 -2.228220070356E+00  2.986124425972E+01      194
 Si  1.851155006363E+01  1.474021288756E+00  1.999017774740E+01  0.000000000000E+00  1.589936642135E+01  5.918432869887E+00  2.912856781693E+01  5.092474374285E+01  2.697399434054E+01 -4.328740319849E+00      196
 Si  1.615520353641E+01  3.821604291811E+00  1.974539389164E+01  0.000000000000E+00 -2.465955062889E-01 -5.703555598794E+00 -3.444514371871E+01 -2.946902486015E+01 -2.818218318006E+01 -5.833355445206E-02      197
 O   2.001086522358E+01  2.029891128548E+00  2.045478625764E+01  0.000000000000E+00  5.251041060268E+01  1.810772929551E+00 -1.166128092520E+01  1.150421070687E+01 -1.140820138570E+01  5.640919766244E+00      202
 O   1.749843568866E+01  2.676523405326E+00  1.962758168457E+01  0.000000000000E+00 -3.268628388798E+01  5.726529852702E+00  1.526405427145E+01  3.589282186678E+01  1.360825170974E+01 -5.271587456679E+00      205
 O   1.604712674144E+01  4.805813601744E+00  2.098287148913E+01  0.000000000000E+00  3.445938127576E+00 -2.613062263818E+00  1.559588719335E+01 -1.140900463865E+01  1.192730835561E+01  1.031993863519E+00      206
 Ca  1.317432867829E+01  5.317466144779E+00  1.887673874212E+01  0.000000000000E+00  2.389513454471E-01 -1.836974535939E+00  3.832874592009E+00 -6.521167685269E+00  2.675014489929E+00  9.644633291701E-02      209
 O   2.229440210678E+01  1.931521117249E+01  1.482478743257E+01  0.000000000000E+00 -3.876372347008E+00  8.516924265477E+00 -2.882354361082E+01  6.536899373630E+00 -4.334656900308E+01 -3.358374452343E+00      210
 O   1.343954421686E+01  1.768125904677E+01  3.505896940409E+00  0.000000000000E+00 -4.687399305364E+00 -1.408971379867E+01  1.182738652549E+01 -2.269375150087E+00  3.956975754589E+01 -6.166810424258E+00      212
 Si  1.431109909067E+01  3.957470022093E+00  1.451513933794E+01  0.000000000000E+00 -3.364134489025E+01 -1.093257245447E+01  3.687013525459E+01 -4.009829805731E+01  3.635184939189E+01 -9.302892325919E+00      213
 Si  1.142894209179E+01  4.722093674626E+00  1.586641849875E+01  0.000000000000E+00  3.055944643432E+01 -4.588428648905E+00  2.170592298906E+01 -1.541729881099E+01  1.563526998297E+01  1.262624025467E+01      214
 Si  1.036397531921E+01  6.221424449927E+00  1.346711601739E+01  0.000000000000E+00  1.717964100557E+01 -5.273078271753E+00 -1.128929217544E+01 -1.141429224545E+01 -8.687973380977E+00  1.031282257059E+01      215
 O   1.252943313165E+01  4.124035104681E+00  1.475670304417E+01  0.000000000000E+00 -7.601827303893E-01 -1.453622955892E+00  1.290027208305E+01 -5.090531762293E+00  1.095319841843E+01 -2.587323789757E-01      216
 O   1.470927139389E+01  3.936308217899E+00  1.617074908891E+01  0.000000000000E+00  1.151492065648E+01  3.569159182637E+00 -1.859555848692E+01  1.331532229281E+01 -1.691493170794E+01  3.105626012104E+00      217
 O   1.478214694127E+01  4.984134451587E+00  1.341446699115E+01  0.000000000000E+00  5.126900988429E+00  4.408060653413E-01  2.803055795190E+00  1.186400260759E+00  3.088843013770E+00  1.728650374525E+00      218
 O   1.447932263038E+01  2.327275190346E+00  1.421810469231E+01  0.000000000000E+00  7.579501014921E+00  4.303286258580E+00 -1.140577244001E+00  6.911887688599E+00 -1.161532163264E+00  1.299842709453E+00      219
 O   1.239966939070E+01  5.812722573770E+00  1.684177227866E+01  0.000000000000E+00 -5.888789700682E+00  2.283314188158E+00 -1.009562559121E+01  6.615670558768E+00 -7.432853119735E+00 -2.760549474893E+00      220
 O   1.035330573918E+01  5.465634805477E+00  1.498323516689E+01  0.000000000000E+00 -1.871362485715E+01  4.353605337840E+00 -7.738912352175E+00  1.193476968774E+01 -5.347531743202E+00 -9.879147968050E+00      222
 O   1.185902181939E+01  6.324550887634E+00  1.291713693676E+01  0.000000000000E+00  3.565130761968E+00 -9.145038837866E-01 -1.639513656664E+00 -1.867764542644E+00 -1.505211899724E+00  1.901324684997E+00      223
 O   2.146918125890E+01  2.167941162511E+01  1.200391269304E+01  0.000000000000E+00 -4.390315911465E+01  2.406185051397E+01  1.846909664872E+01  1.332307157581E+01  3.303226154497E+01 -4.433306732154E+01      224
 Ca  1.564343712297E+01  7.473671042692E+00  6.329461246747E+00  0.000000000000E+00 -1.007775740099E-01  1.378146975872E+01 -4.374650964429E+00  1.167154377852E+01 -1.081206987911E+01 -4.814660810859E-02      225
 Ca  1.662450737862E+01  5.087406402329E+00  1.601542682102E+01  0.000000000000E+00  8.941611563226E+00 -2.524052334882E+00 -7.049237250822E+00 -7.945851434872E+00 -7.317325850859E+00  2.736298338222E+00      226
 Si  2.166388260717E+01  2.473733371064E+00  2.033535564570E+01  0.000000000000E+00 -4.997149333952E+01 -4.254751249903E+00  3.281069085469E+01 -3.207983341261E+01  3.495424261668E+01 -3.275067704739E+00      228
 Si  2.286156564466E+01  5.038096317640E+00  2.157370227942E+01  0.000000000000E+00  6.090466135739E+01 -1.735618014290E+00 -6.402379633361E+01 -7.432114026880E+00 -6.784575979328E+01  1.342180823838E+01      229
 O   2.280261534827E+01  1.214465614809E+00  2.029970686392E+01  0.000000000000E+00 -3.883062566183E+01  6.587312586040E+00  9.566894621260E+00 -2.535837535234E+01  1.074647134505E+01 -1.471228360596E+01      230
 O   2.187828791429E+01  3.660766460669E+00  2.154722893163E+01  0.000000000000E+00  8.651657443321E+00 -1.434058743926E-01  2.122580874974E+01 -1.154324092292E+00  2.155192932298E+01  1.374320810506E+00      236
 O   2.368393400546E+01  5.009741070824E+00  2.308519535279E+01  0.000000000000E+00 -1.207673801674E+01  1.527589521381E+00 -7.892652990098E+00  7.039226583055E+00 -8.097357188828E+00 -2.554530443723E+00      237
 H   1.300437345874E+01  1.736126977966E+01  4.400723886304E+00  0.000000000000E+00  1.144981873895E+01 -2.641288111007E+00 -7.683336995913E+00 -7.464828017040E-01 -2.327406743166E+01  1.528588768123E+01      243
 H   1.936188483176E+01  1.921967659060E+01  8.003943285737E+00  0.000000000000E+00 -2.863815902424E+01 -7.147276907644E+00  7.581717217369E-01 -2.976449616442E+00  1.834050171886E+00 -2.842781885021E+01      247
 H   1.511636586744E+01  8.100493695222E+00  9.368434153450E+00  0.000000000000E+00  2.591512002232E+01  1.980478337873E+00 -1.142917611321E+01  2.290475321479E+00 -1.844146042561E+01  1.388728403325E+01      248
 H   6.137452233877E+00  1.134805477284E+01  9.439740464956E+00  0.000000000000E+00 -8.444739474305E-01 -5.059691369565E+00  3.315215324663E+00 -4.208842336204E+00  2.155459228532E+00 -1.561419338920E+00      249