     8448
Lattice="     49.70      0.00      0.00      0.00     49.70      0.00      0.00      0.00     49.70" pbc="T T T" config_type=md Properties=species:S:1:pos:R:3:charge:R:1:forces:R:3:id:I:1
 Si  1.095596963859E+01  1.781306287213E+01  1.564102480523E+01  0.000000000000E+00 -1.973731080782E+01 -2.111598287160E+01  1.980774874481E+01 -1.854120283819E+01  1.387460838143E+01 -3.209044657335E+01        1
 Si  1.253234273519E+01  2.018667413827E+01  1.690691482134E+01  0.000000000000E+00  1.670131252232E+01 -3.072851129139E+01  3.951759319582E+01 -2.573600383260E+01  2.929263128331E+01  2.690190977805E+01        2
 Si  1.089934331060E+01  2.249535347872E+01  1.811522205253E+01  0.000000000000E+00 -5.700293627094E+00 -4.281835606275E+01  2.746093463527E+01 -3.448107755829E+01  1.652235635599E+01 -1.176493999866E+01        3
 O   1.140066111880E+01  1.928549170707E+01  1.621376414391E+01  0.000000000000E+00 -1.823561772585E+00  5.790630845689E+00  1.108960124790E+01  4.868318848308E+00  7.797620876173E+00 -3.084758425503E+00        4
 O   9.419728211763E+00  1.800210064768E+01  1.499212728993E+01  0.000000000000E+00  4.881071090584E+00 -1.693645428334E+00  3.547907327277E+00 -1.410465830768E+00  2.229191501457E+00  9.328245047606E+00        5
 O   1.180347933786E+01  1.729675421288E+01  1.444212436773E+01  0.000000000000E+00  5.972181127469E+00 -9.914222997953E+00 -2.130953165398E+01 -8.277994806637E+00 -1.741617854637E+01  8.751601635395E+00        6
 O   1.090279842863E+01  1.674834944896E+01  1.700694178482E+01  0.000000000000E+00 -7.464235117058E+00  3.265780676711E+01  2.525019370025E+01  3.316203905350E+01  1.618737664190E+01 -1.146619548440E+01        7
 O   1.338242265966E+01  2.084793282479E+01  1.574281525119E+01  0.000000000000E+00  3.236313157936E+00  3.636439684397E+01 -3.598831262447E+01  2.745970001183E+01 -3.059241963171E+01  5.041720847750E+00        8
 O   1.386084008362E+01  1.955064392687E+01  1.769942328998E+01  0.000000000000E+00  6.247785141548E+00 -1.770574157199E+01 -5.908984576892E+00 -1.602921192355E+01 -4.627466609224E+00  8.812468933849E+00        9
 O   1.205580420378E+01  2.116498904631E+01  1.806147023777E+01  0.000000000000E+00 -3.905833094677E+01  5.454870483009E+01  2.046591866823E+01  4.654997962161E+01  1.366074328759E+01 -6.857022001043E+01       11
 O   1.983925780289E+01  1.801174153673E+01  2.131595592141E+01  0.000000000000E+00  3.031035350042E+01  2.200175310027E+01 -2.112732287623E+01  2.603792633392E+01 -1.966369262405E+01  2.751828009701E+01       13
 Ca  3.570211103893E+00  1.576251365970E+01  1.736098270704E+01  0.000000000000E+00  7.740380617646E-01 -4.228354707804E+00 -1.320619923608E+01 -4.657150156773E+00 -2.715797829450E+00  3.417384901522E+00       14
 Ca  2.120257648129E+01  1.351641822274E+01  1.783129032908E+01  0.000000000000E+00  8.907861530460E+00 -2.185390526774E+00  3.153397756626E+00 -2.883036935020E+00  3.749597246015E+00  5.678667496952E+00       15
 O   6.033285538906E+00  4.122524616519E+00  1.623739703572E+01  0.000000000000E+00  6.122901665260E+00  4.437696833158E-01 -4.382787646550E+01 -3.889590520726E-02 -1.628500508417E+01  4.124716949050E+00       16
 O   9.786359420666E+00  1.671804953113E+01  2.008614983754E+01  0.000000000000E+00 -5.665718754757E+00  4.961484921555E+00 -3.619095206219E+00  5.961050023539E+00 -1.763292953211E+00 -9.678754141346E+00       18
 Si  2.058172284833E+01  1.987331286541E+01  1.801711894706E+01  0.000000000000E+00 -9.092350327766E+00 -9.894736346799E+00  7.006062088031E+00 -8.970554779536E+00  8.003323315884E+00 -8.779397336035E+00       19
 Si  1.807742204496E+01  2.164383529763E+01  1.865813133018E+01  0.000000000000E+00  1.520527240839E+01 -4.996272576304E+01 -2.339534343318E+01 -4.307051343170E+01 -2.266719478196E+01  1.820505218301E+01       20
 O   1.913232650718E+01  2.025668388921E+01  1.871473782021E+01  0.000000000000E+00 -2.578655821160E+00  3.851246519630E+01 -7.050956474761E+00  3.558088248306E+01 -7.208287006691E+00 -2.730196759328E+00       22
 O   2.175504486474E+01  2.099432897410E+01  1.758050929155E+01  0.000000000000E+00 -2.494234670153E+01 -2.255600490231E+01  6.391493806083E+01 -1.888824616659E+01  7.909169876601E+01 -2.407017936731E+01       23
 O   2.022173070463E+01  1.911448030862E+01  1.665625514444E+01  0.000000000000E+00  5.784594815940E+00  7.075365102629E+00 -2.108114686706E+01  6.165435025525E+00 -2.559382473393E+01  5.467856600291E+00       24
 O   2.111186061891E+01  1.865520589523E+01  1.906010632513E+01  0.000000000000E+00  1.196554227487E+01  2.503287483629E+01 -3.215478808267E+00  2.557619887354E+01 -3.561613941981E+00  1.057318721524E+01       25
 O   1.858990829531E+01  2.252664868065E+01  1.984384513835E+01  0.000000000000E+00  2.142056336726E+01  4.265147044044E+01  5.528678467768E+01  3.757190811388E+01  5.179320086077E+01  2.595674480211E+01       26
 O   2.230457844692E+01  1.707384152332E+01  2.078308084822E+01  0.000000000000E+00 -4.200777185169E+00  2.881488571050E+00  2.982404004954E-01  3.507483061357E+00  3.200741245956E-01 -3.215635933449E+00       27
 O   1.814660830280E+01  2.252590776089E+01  1.724344496526E+01  0.000000000000E+00  5.312216388191E+00  1.647896260454E+01  4.902311972709E+00  1.261454533918E+01  5.159081339381E+00  6.594207268354E+00       29
 Ca  4.551659782046E+00  1.120311455256E+01  1.465345677202E+01  0.000000000000E+00  6.589946390441E-02 -6.125065929141E+00 -9.288124702027E+00 -8.011467560861E+00 -2.885079221550E+00  1.622000058057E-01       32
 Si  1.289551530449E+01  1.897383676934E+01  1.198168011337E+01  0.000000000000E+00  6.919082553131E+01  5.426779040099E+01  1.225743589145E+01  3.426925787064E+01  1.319230280198E+01  1.018040302049E+02       37
 Si  1.259700508548E+01  2.121281471480E+01  1.431001326755E+01  0.000000000000E+00 -1.153409221726E+00  6.223855421594E-01 -2.364832968352E+01  4.198568405737E-01 -2.081746003422E+01 -1.942291516499E+00       38
 O   1.276081908872E+01  1.979951921815E+01  1.348206220842E+01  0.000000000000E+00 -5.301596086515E+00  2.659471830750E+01  1.327668298871E+00  1.810910874585E+01  1.256642693811E+00 -8.225886823727E+00       40
 O   1.362157185368E+01  1.750768984721E+01  1.244525338885E+01  0.000000000000E+00  3.298297626012E+01  2.316935569423E+01 -3.805732781039E+01  1.646982011833E+01 -4.165448537938E+01  4.239273740231E+01       41
 O   1.409163425793E+01  1.997560714493E+01  1.130034660032E+01  0.000000000000E+00 -3.843544929589E+01 -3.524938814888E+01  1.738590195916E+00 -1.994083587254E+01  2.168037674577E+00 -5.448420115939E+01       42
 O   1.152180471542E+01  1.868048057401E+01  1.133751985659E+01  0.000000000000E+00 -1.755920759708E+01 -4.115774527314E+00 -9.718981844468E+00 -2.497937633018E+00 -9.876958299614E+00 -2.846901544629E+01       43
 O   1.335433889198E+01  2.265043554132E+01  1.363322306502E+01  0.000000000000E+00 -2.939512054029E+01  5.404456377691E-01  1.645414931919E+01  3.252924616298E-01  1.611755966581E+01 -4.985737507583E+01       44
 O   1.101642623965E+01  2.174868148311E+01  1.432050613470E+01  0.000000000000E+00  6.663406443933E+00  7.183804066279E+00  7.230783320773E+00  4.730204462351E+00  5.562470373528E+00  1.315492893875E+01       46
 O   8.856365875800E+00  2.070346573321E+01  1.511981201856E+01  0.000000000000E+00 -4.430174454881E+00  3.296949676444E+01 -1.413675043463E+01  2.407773654173E+01 -8.280541715083E+00 -1.035638842218E+01       47
 O   1.682970514726E+01  1.541563165726E+01  9.475523160654E+00  0.000000000000E+00 -1.504259543912E+01  1.613395574396E+01 -8.122949602610E+00  9.917055280244E+00 -1.442736663930E+01 -1.377867933095E+01       48
 Ca  7.415612957115E+00  2.108648361953E+01  1.311694873063E+01  0.000000000000E+00  3.534824840721E+00  6.848410971048E+00  2.891880817737E+00  4.260087040324E+00  1.634912913272E+00  1.005136413305E+01       49
 Si  2.070732121390E+01  2.098513252390E+01  2.295062297997E+01  0.000000000000E+00  7.933163269361E+00 -3.417569451831E+01  4.682559774431E+01 -3.737662743253E+01  4.224864372397E+01  8.039595311324E+00       51
 Si  1.948763770229E+01  2.296977205485E+01  2.119759194099E+01  0.000000000000E+00  4.816569448961E+01 -8.039077651988E+01 -3.766111812362E+01 -7.418841042123E+01 -3.462309433540E+01  5.677214653679E+01       52
 O   1.936946593933E+01  2.170745538448E+01  2.243992015456E+01  0.000000000000E+00 -5.384342853258E+00  2.222262348890E+01 -3.274884246338E+01  2.297247134145E+01 -2.826781843598E+01 -6.034259417784E+00       54
 O   2.000609185460E+01  1.954361541924E+01  2.393923478459E+01  0.000000000000E+00  4.876095671921E+00  2.043395967914E+01 -3.203358558178E+01  2.502982932505E+01 -2.677056561531E+01  4.763376038260E+00       55
 O   2.190813612388E+01  2.025098422872E+01  2.224467892238E+01  0.000000000000E+00  1.867896443533E+01 -2.116004759410E+01 -2.831207040914E+01 -2.324323891603E+01 -2.788373321265E+01  1.726607010518E+01       56
 O   2.154783258074E+01  2.187818637473E+01  2.405429973891E+01  0.000000000000E+00 -2.300492828298E+01  1.003636040261E+01  1.227266687068E+01  1.103462678657E+01  1.099385032693E+01 -2.335762107982E+01       57
 O   1.658246510057E+01  2.114343795523E+01  1.870598186338E+01  0.000000000000E+00 -1.580409262434E+01 -5.670049758151E+00 -1.005438122165E+01 -5.016395543858E+00 -8.913000500780E+00 -2.015097573340E+01       58
 O   1.595140428486E+01  1.584600187932E+01  1.290624985777E+01  0.000000000000E+00  2.093049824472E+00 -4.463927396234E+01 -1.164276295736E+01 -3.635779091881E+01 -1.438980501480E+01  2.079219538280E+00       59
 H   3.623354762183E+00  8.379818386736E+00  1.627305235805E+01  0.000000000000E+00 -2.651524227356E+00 -1.108648025953E+01 -2.218350742056E+01 -2.152921046779E+01 -5.000142349307E+00 -6.351405635739E+00       70
 H   1.440222920024E+01  1.962711155703E+01  1.851314802784E+01  0.000000000000E+00 -6.660750810374E+00  2.343209699541E+00 -2.477284864778E+00  2.210217631964E+00 -1.927193817235E+00 -9.077157250534E+00       73
 H   1.754670184442E+01  1.024355698460E+01  1.719499027780E+01  0.000000000000E+00  5.077046718213E+01  2.568985929722E+00  2.600564028686E+01  4.312338785424E+00  2.653756757140E+01  2.963919819954E+01       83
 Si  2.089770176244E+00  2.062672594084E+01  2.143742490466E+01  0.000000000000E+00  1.428822842176E+01  4.214681233950E+01  4.007824749228E+01  4.380332230574E+01  7.142992473216E+00 -2.796411612939E+00       89
 Si  2.638544157274E+00  2.034862902716E+01  1.852490625221E+01  0.000000000000E+00 -7.057204509190E+00 -2.776652898814E+01 -9.326857932069E+00 -2.527798535066E+01 -2.107739301615E+00 -1.665657836826E+01       90
 O   1.825152516765E+00  1.995951997809E+01  1.997048736680E+01  0.000000000000E+00  1.906484968819E+01  1.141002701154E+00 -3.363314158535E+01  1.141629661129E+00 -3.348232727173E+00  1.287369073375E+01       92
 O   9.740774788771E-01  1.996324644403E+01  2.239815291990E+01  0.000000000000E+00  1.875295457053E+01 -1.172978679900E+00 -8.658206473478E+00 -1.316046261205E+00  7.405335969675E+00 -1.931944866186E+00       95
 O   1.854277871358E+00  1.984500886867E+01  1.715120884370E+01  0.000000000000E+00  9.548207797822E+00 -3.609608449334E+01 -6.495593034172E+00 -3.119633191812E+01 -1.465645115222E+00  1.292127590610E+01       96
 O   4.153094447122E+00  1.992716161941E+01  1.838262610671E+01  0.000000000000E+00  3.266023493468E+00  6.446027531584E+00  1.579984774022E+01  5.946402013985E+00  3.566888952128E+00  1.537571470451E+01       97
 O   1.090132119745E+01  1.462725839008E+01  2.089920155333E+01  0.000000000000E+00  1.937010857338E+01  9.654755535748E+00  1.192034648916E+01  1.379456604298E+01  6.217822510186E+00  2.599057288698E+01       98
 O   3.193533527431E+00  1.235016346850E+01  2.097761540764E+01  0.000000000000E+00 -2.868736298214E-01  1.045940979263E-01  3.877344856901E+00  1.776603820510E-01  4.937994751464E-01 -6.867798367060E+00      101
 Ca  2.226309572662E+01  2.302430433439E+01  1.869303100993E+01  0.000000000000E+00 -1.399203564575E+01 -2.091514430799E+01  4.950831747778E+00 -1.698064078064E+01  5.896360042875E+00 -1.447044431383E+01      102
 O   1.581191965534E+01  4.594303102245E+00  1.138841530680E+01  0.000000000000E+00  2.401635515476E+01  1.337976019427E+00 -1.209197410495E+01  3.409123907109E+00 -1.678875575496E+01  6.967963469092E+00      105
 Si  5.658052047194E+00  1.547762739339E+01  2.012086492191E+01  0.000000000000E+00  8.920397596640E-02  2.627002501722E+01 -1.898017875966E+01  3.415094648759E+01 -5.337287422980E+00  2.440178864565E-01      107
 Si  8.515162428041E+00  1.664604030565E+01  2.111542176979E+01  0.000000000000E+00 -6.890776912957E+00  1.490175974954E+01 -4.886541821957E+01  1.890281030480E+01 -1.970583291162E+01 -1.347057689147E+01      108
 Si  7.675835622165E+00  1.956236240402E+01  2.035829056677E+01  0.000000000000E+00  5.376561503960E+00  3.407732949665E+01 -1.131014861736E+01  3.546382391371E+01 -4.264348294095E+00  1.370251394184E+01      109
 O   7.269107195713E+00  1.568659945091E+01  2.052841687520E+01  0.000000000000E+00  2.585333853004E+00  7.240106924945E+00  5.075032969071E+00  9.474834468839E+00  1.797067883911E+00  5.579102839873E+00      110
 O   5.438372834563E+00  1.609506970305E+01  1.856281406825E+01  0.000000000000E+00 -1.731471240308E+00 -8.707065419926E+00  1.772631320321E+01 -1.004205880758E+01  5.193302040675E+00 -5.124354498916E+00      111
 O   4.787087690038E+00  1.641363070472E+01  2.111011968213E+01  0.000000000000E+00 -2.649370826455E-01  1.193007387370E+01  1.052431297075E+01  1.534366721302E+01  2.386571456108E+00 -9.083976973265E-01      112
 O   5.018474757818E+00  1.398458215938E+01  2.038288849522E+01  0.000000000000E+00  4.470615846370E+00  3.210600169470E+00 -3.159262089561E+00  4.679532395834E+00 -7.778425051737E-01  1.245790755632E+01      113
 O   8.912434442080E+00  1.593740862558E+01  2.251253068999E+01  0.000000000000E+00 -1.311211157384E-01 -9.857982502424E-01 -1.130962004015E+00 -1.392498233816E+00 -4.477339689648E-01 -2.344736238505E-01      114
 O   1.092683737369E+01  1.407716217094E+01  3.554937677712E+01  0.000000000000E+00 -1.490596946534E+01 -1.289002050656E+01  5.674894935727E+01 -3.255146101807E+01  1.744296516483E+01 -1.920352086358E+01      115
 O   8.289645524117E+00  1.831986241307E+01  2.116073643295E+01  0.000000000000E+00 -4.088097947599E+00 -3.770300350751E+01  2.961235465593E+01 -4.354963492433E+01  1.160053781729E+01 -9.034571105998E+00      117
 O   6.282878066176E+00  2.019252569388E+01  2.088052336983E+01  0.000000000000E+00 -2.910248760877E+00 -1.410390656543E+01 -1.130641107080E-01 -1.458445343143E+01 -3.402060420885E-02 -9.353241024356E+00      118
 O   5.757128628789E+00  9.157723873181E+00  2.223264393527E+01  0.000000000000E+00  1.251962558053E+00  1.957731857919E+01  3.239125577786E+01  4.752879200181E+01  8.387694531704E+00  1.991466257828E+00      119
 Ca  2.395696329486E+01  1.889083084007E+01  2.083323604834E+01  0.000000000000E+00 -1.194355693714E+01 -3.012112473265E-02  7.971929412632E+00 -3.321825847204E-02  9.167237383789E+00 -9.417876170334E+00      120
 Ca  3.151905264227E+00  1.216060340247E+01  1.853272303995E+01  0.000000000000E+00 -1.444187741605E+00 -4.544215857494E+00  2.696469367800E+01 -6.925371310405E+00  5.494433572729E+00  6.054430173001E+00      121
 Si  1.003675889185E+00  1.719692384197E+01  1.418501358206E+01  0.000000000000E+00 -2.173036784869E+02 -1.945022179495E+00 -4.842590528711E+01 -1.604366355697E+00 -1.451431786944E+02 -1.228111263405E+01      125
 Si  2.397178745913E+00  1.890763974392E+01  1.583318392549E+01  0.000000000000E+00 -2.616090876543E+00  2.805550172226E+01 -2.896929809490E+01  2.349356793902E+01 -7.007990489380E+00 -3.360155907942E+00      126
 Si  3.382102117436E+00  2.032725910139E+01  1.286346768531E+01  0.000000000000E+00 -2.556561703263E+01  7.929764085587E+01  3.616811054075E+01  5.018102222157E+01  9.552932506677E+00 -1.531275987615E+02      127
 O   9.415989553109E-01  1.824468919702E+01  1.536169570564E+01  0.000000000000E+00  2.772789440592E+01  4.702858295576E+01  3.149027324395E+01  3.959720952395E+01  4.246300908324E+01  1.738876362404E+01      128
 O   2.328397258750E+00  1.694504178756E+01  1.321969688546E+01  0.000000000000E+00  1.987685970643E+01 -1.333289312086E+00  8.831807735512E+00 -1.040167429940E+00  3.230646346877E+00 -1.605499667075E+01      129
 O   7.490781318069E-01  1.591190893434E+01  1.511515430616E+01  0.000000000000E+00  1.049755617306E+01 -1.327018408028E+00  1.681610260683E+01 -1.260570814428E+00  1.333648113545E+01 -1.480387408512E+01      131
 O   3.621414741143E+00  1.788528420462E+01  1.586734152309E+01  0.000000000000E+00  2.433390764470E+00 -1.021994991474E+01  2.293940822221E+01 -9.066863785381E+00  5.068399819332E+00  1.312242017393E+01      132
 O   2.614980324729E+00  4.861287738573E+00  9.167611970886E+00  0.000000000000E+00 -6.029794190991E-01  2.413663681837E+00 -2.274405408854E+01  4.551784064894E+00 -7.992226609653E+00 -1.226188252058E+01      133
 O   2.766191692854E+00  1.972747618018E+01  1.432724170190E+01  0.000000000000E+00  6.260034375186E+00  1.379433023108E+01  3.003390896973E+01  1.001824569608E+01  7.361588080764E+00 -5.270749375301E+00      134
 O   1.746695340716E+00  2.022745564654E+01  1.205015420173E+01  0.000000000000E+00  4.454240596864E+01 -9.177431247350E+00  2.169338878568E+01 -5.467294732408E+00  5.830027727157E+00  7.156255198267E+01      135
 O   8.321006050013E+00  1.565534171318E+01  1.190612338529E+01  0.000000000000E+00  1.430475258530E+01 -2.437062178473E+00  1.185803680640E+01 -1.853422526708E+00  8.287399081494E+00  2.691330693660E+01      136
 Si  8.758187489522E+00  1.389423826376E+01  2.586812654182E+01  0.000000000000E+00 -1.764400680876E+01 -2.434434980836E+01 -5.269448854315E+01 -4.532401917012E+01 -1.784080534705E+01 -2.799095530002E+01      139
 Si  8.979652486628E+00  1.637038836964E+01  2.405299158548E+01  0.000000000000E+00  6.718684100758E+00  2.691960910407E+01  8.553943425003E+01  3.955294869275E+01  3.193425610857E+01  1.224852166897E+01      140
 O   8.380125892437E+00  1.519666901460E+01  2.506452321933E+01  0.000000000000E+00 -2.355359976547E+00  2.189254477829E+01 -4.125596986623E+01  3.610832060622E+01 -1.379360853060E+01 -4.271251581806E+00      142
 O   7.378053917489E+00  1.292124061611E+01  2.581153966573E+01  0.000000000000E+00  7.851987401957E+00 -1.332384487012E+01  1.980683620292E-01 -2.661578408628E+01  5.661650073283E-02  1.375124384695E+01      143
 O   7.863388088905E+00  1.758288101925E+01  2.440124063656E+01  0.000000000000E+00  4.670727709602E+00 -3.044187694587E-02 -1.032883931229E+01 -4.224674920858E-02 -3.328505842395E+00  1.044395223315E+01      148
 O   1.380145129634E+01  1.593429766213E+01  1.091250999218E+00  0.000000000000E+00 -2.269315400586E+01  9.151340536382E+00  6.502870657369E+01 -2.004346750822E+01  1.527210750963E+01 -2.620010483374E+01      150
 Ca  5.004595769321E+00  1.144630680708E+01  7.709568801250E+00  0.000000000000E+00 -9.346272501141E-01 -3.646925693821E-01 -9.918374791185E-01 -2.456357760056E-01 -6.438421888194E-01 -2.137641229816E+00      151
 Ca  1.275194144051E+01  2.180179224217E+01  1.498029143383E+00  0.000000000000E+00 -6.791901555277E+00  7.427438269367E-01 -3.328537424153E+01  3.897698473064E+00 -1.143080399696E+01 -1.161200647982E+01      152
 H   7.744719482411E+00  1.747346843196E+01  1.537420349766E+01  0.000000000000E+00 -1.063162494324E+01  4.385067037799E+00  4.227323514581E+01  3.858244472326E+00  2.129504451194E+01 -2.398684203451E+01      155
 H   9.963070980460E+00  1.413652892299E+01  3.606207091696E+01  0.000000000000E+00  2.859752813795E+01 -1.289951388584E+01 -6.309607121783E+01 -3.290646431523E+01 -1.743190615921E+01  4.057682459968E+01      156
 H   1.508525243221E+01  1.537712423188E+01  1.279917227211E+01  0.000000000000E+00  1.092139152804E+01  1.820679762197E+01  3.446265699705E+00  1.515445513563E+01  4.061808601623E+00  1.113270030225E+01      159
 H   1.670185536765E+01  4.733675603735E+00  1.182671292385E+01  0.000000000000E+00 -1.198004072144E+01 -2.351640689583E+00  1.860240379293E+00 -5.875387682631E+00  2.627058419702E+00 -3.395408788216E+00      160
 H   1.702833341629E+01  1.611936048167E+01  1.753783740500E+01  0.000000000000E+00 -3.747673063058E+01 -1.019852956025E+01  3.241932406058E+01 -1.109598320610E+01  3.147748758790E+01 -3.547622165601E+01      164
 H   2.072579066549E+01  7.216254724799E+00  6.509516630560E+00  0.000000000000E+00  2.427186929096E+01  1.618743058950E+00  1.927680806697E+01  1.460208274886E+00  6.137584576084E+01  8.450919642945E+00      168
 H   4.511962357209E+00  2.157858139141E+01  3.367816883755E+01  0.000000000000E+00 -7.675093989946E+00  4.209617939098E+01  2.059200512234E+01  6.570043744905E+01  2.757476251722E+00 -3.673178747711E+01      169
 Si  1.217219656668E+01  8.951731411082E-01  1.992635750378E+01  0.000000000000E+00  4.300197058559E+01 -1.604867509312E+02  6.214304303609E+01 -7.095884442290E+01  3.796064257822E+01  4.312817224885E-01      177
 Si  1.116431841458E+01  3.634671467657E+00  1.945242149790E+01  0.000000000000E+00  1.856934115395E+01 -2.587088385162E+00 -3.812377166290E+01 -1.513287579338E+01 -2.188035695480E+01  5.963200480513E+00      178
 Si  8.170276022169E+00  3.930040386544E+00  2.022390624009E+01  0.000000000000E+00  5.131752358146E+00  1.614210395330E+00 -4.937513611588E+00  4.561353060162E+00 -1.994711041032E+00  2.964246412303E+00      179
 O   1.200930643214E+01  2.097167014028E+00  1.894198183819E+01  0.000000000000E+00 -4.024391609011E+01  4.529746833784E+00 -1.275325429906E+01  6.340358207805E+01 -8.085623784926E+00 -8.142478138491E+00      180
 O   1.203612628930E+01  1.064297091887E+00  2.159303503850E+01  0.000000000000E+00 -2.671022621013E+01  3.916012575304E+00 -8.981668781427E+01 -2.604020038835E+01 -5.006452291176E+01 -4.939273107200E+00      182
 O   1.134087126801E+01  4.520576423463E+00  1.807015169497E+01  0.000000000000E+00  2.614978458433E+00  2.296291766892E+00 -4.616131589701E+01  9.178993269151E+00 -2.897095442181E+01  1.042354655801E+00      184
 O   1.197530367425E+01  4.568745375383E+00  2.039773769978E+01  0.000000000000E+00  4.782370920536E+00 -7.593686985437E-01  4.213394465708E+01 -3.390296954122E+00  2.473640899245E+01  1.824541207548E+00      185
 O   9.607788585031E+00  3.442120094854E+00  1.955204432309E+01  0.000000000000E+00 -1.402012748685E+01 -3.582679956383E+00 -1.721466717592E+01 -1.868558144742E+01 -8.459211735345E+00 -5.025086501522E+00      187
 O   6.807965463560E+00  4.166105771314E+00  1.949471629473E+01  0.000000000000E+00  7.633582018296E-01  5.988554851840E+00 -2.754533521768E+00  2.462847516513E+01 -9.619411127045E-01  6.308696836431E-01      188
 Ca  1.099162958095E+01  4.862012149780E+00  2.273057617078E+01  0.000000000000E+00  3.026965533978E+00 -1.029473551190E+00 -7.689218519530E+00 -4.812930583109E+00 -3.718209388914E+00  1.338940972745E+00      190
 O   1.610275878871E+01  2.013903907670E+01  8.512940029147E+00  0.000000000000E+00  2.169229158214E+01  3.008476579853E+01  1.616615268548E+00  1.271708178620E+01  3.057928945164E+00  2.712963123698E+01      193
 O   4.293090830174E+00  1.253366513784E+01  1.268393117639E+01  0.000000000000E+00  1.029013529308E+01  2.614029570743E+00 -8.517483865619E+00  2.645369156087E+00 -2.883659297195E+00  3.004630154423E+01      194
 Si  1.804938509194E+01  1.235734518382E+00  1.966905060405E+01  0.000000000000E+00  1.603554189480E+01  1.192901234029E+01 -1.042682873684E+01  4.232503001820E+01 -9.568222226251E+00 -3.305937507963E+00      196
 Si  1.658284381326E+01  3.985351495170E+00  1.954121562652E+01  0.000000000000E+00 -1.521590391653E+01 -3.500207389680E-01  2.304092223290E+01 -1.325268150149E+00  1.955272496881E+01 -3.638699777816E+00      197
 O   1.969060148113E+01  1.626188834205E+00  1.990415246631E+01  0.000000000000E+00  1.637000348279E+01  1.148363691724E+01  1.521143641191E+01 -3.507594213688E+01  1.504823342011E+01 -1.925629661124E+00      202
 O   1.765144303551E+01  2.779860175463E+00  1.972469061543E+01  0.000000000000E+00 -1.723402680929E+01  1.186465321980E+00  1.707273151928E+01  3.279396849268E+00  1.527822939019E+01 -2.878669605341E+00      205
 O   1.567873707602E+01  4.649965631540E+00  2.071661893577E+01  0.000000000000E+00 -5.797108725855E+00 -6.365772821226E-01  6.767491547606E+00 -2.836091709465E+00  5.121768227145E+00 -1.719293856822E+00      206
 Ca  1.404476821131E+01  5.107082026468E+00  1.813371145014E+01  0.000000000000E+00 -1.177955549549E-01  3.150428144491E-01  7.772752075703E+00  1.118622231257E+00  6.020085935932E+00 -4.283385474624E-02      209
 O   2.348008961359E+01  1.906941932671E+01  1.489645654130E+01  0.000000000000E+00  1.462335170304E+01  4.189028202820E+01 -2.941834998146E+01  3.272342775860E+01 -4.636978545422E+01  1.187639528538E+01      210
 O   1.442558869081E+01  1.760708116270E+01  4.674055526730E+00  0.000000000000E+00 -2.090922478827E+00  4.491835275556E+00 -4.275641789453E+00  1.192422940569E+00 -1.319596001612E+01 -2.552065123906E+00      212
 Si  1.302746464268E+01  3.461223682129E+00  1.468786296503E+01  0.000000000000E+00  2.409662933461E+01  1.102838334234E+01 -3.184427625964E-01  5.132601982509E+01 -2.824442085496E-01  6.447706742463E+00      213
 Si  1.105013333813E+01  5.311044371168E+00  1.661820177964E+01  0.000000000000E+00  5.033131631111E+01 -2.319286786780E+01 -2.937393032165E-02 -7.257023875909E+01 -1.953194762124E-02  2.419082612019E+01      214
 Si  9.282884379027E+00  6.233830134764E+00  1.435807892106E+01  0.000000000000E+00  8.565977394607E+00 -3.158592796187E+00  1.365558191875E+01 -7.275033754004E+00  8.828701163790E+00  5.752398267165E+00      215
 O   1.210349542442E+01  4.677894032084E+00  1.542635460234E+01  0.000000000000E+00 -1.808698916040E+01 -2.115170789329E+00  2.700344515079E+01 -6.975227402955E+00  2.118686386066E+01 -6.990461489421E+00      216
 O   1.443254090670E+01  3.707596537248E+00  1.562483489760E+01  0.000000000000E+00 -2.192621402989E+01 -2.531007283484E+00 -2.649871368104E+00 -7.511558878307E+00 -2.447665986124E+00 -5.591188384868E+00      217
 O   1.321895818066E+01  4.211866017987E+00  1.321307367545E+01  0.000000000000E+00 -2.019582829764E+00 -5.905802975310E+00  3.782502306940E+00 -1.336498303295E+01  3.784186862335E+00 -1.827932723223E-01      218
 O   1.290572194928E+01  1.881035788941E+00  1.489987983312E+01  0.000000000000E+00 -1.441134172735E+01  2.136211480687E-01 -3.995460130526E+01 -1.300709925096E+00 -3.460719017975E+01  1.088822205006E+00      219
 O   1.135027571181E+01  6.812770091666E+00  1.681518051604E+01  0.000000000000E+00  2.214694220639E+01  2.220096484156E+01  1.323836495172E+01  5.479610003247E+01  8.935919066241E+00  1.329324761058E+01      220
 O   9.649643828973E+00  5.350207372062E+00  1.602794403576E+01  0.000000000000E+00 -4.935751185878E+01 -1.173190307657E+00 -5.788004804902E+01 -3.514598086909E+00 -3.484675559328E+01 -2.736607987754E+01      222
 O   1.057941430145E+01  6.537912230078E+00  1.348848211045E+01  0.000000000000E+00 -3.036662061330E+00 -2.778903874103E+00  5.741476934933E+00 -5.733205627945E+00  4.503209679154E+00 -1.876609561142E+00      223
 O   2.088384877133E+01  1.981426355657E+01  1.292872179014E+01  0.000000000000E+00  4.015369883269E+01 -1.766794209889E+00 -2.126572742796E+01 -1.152825626593E+00 -3.435066844398E+01  3.809719080777E+01      224
 Ca  1.549167475057E+01  6.961046908503E+00  5.738439794972E+00  0.000000000000E+00  7.256752469243E+00  7.685302213497E-01  4.253743560675E+00  6.335490140779E-01  1.148354153197E+01  3.260757481366E+00      225
 Ca  1.631272456040E+01  4.252933498568E+00  1.613517412578E+01  0.000000000000E+00  1.169236537016E+01 -8.614476217300E-01 -1.054288423492E+00 -9.071098518224E-01 -1.065889746561E+00  3.258795866771E+00      226
 Si  2.118337537008E+01  2.281142547234E+00  1.977227414381E+01  0.000000000000E+00 -1.913611621925E+01  8.188320232326E-01 -9.769064159822E+01  2.665640528562E+01 -1.046625955147E+02  2.040063035061E+00      228
 Si  2.269116632331E+01  4.671771907983E+00  2.077739179000E+01  0.000000000000E+00 -1.656871979148E+01  2.077688307477E+00  2.636145698641E+01  9.964059353741E+00  2.878957142694E+01 -3.390610234006E+00      229
 O   2.236935647812E+01  1.707829526098E+00  2.072785244305E+01  0.000000000000E+00 -2.252508305097E+01  2.622087379010E+01 -7.610666786958E+00  2.434039350779E+01 -8.213379502840E+00 -6.730254144307E+00      230
 O   2.135880488835E+01  3.833446041855E+00  2.017873734639E+01  0.000000000000E+00  3.110385646852E+00  4.504334712940E+00  7.684714682175E+00  2.162595205020E+01  8.134122502397E+00  7.261717514783E-01      236
 O   2.254809201770E+01  4.424975215455E+00  2.248426907714E+01  0.000000000000E+00  2.471934576396E+00  5.076381350053E+00  8.857639550223E+00  2.689950159349E+01  8.882782489075E+00  5.207341485765E-01      237
 H   1.407394672719E+01  1.816305225283E+01  5.396296607103E+00  0.000000000000E+00  8.717245238377E-01 -1.301995093443E+01  2.194159923762E+00 -3.868265976120E+00  5.722533827609E+00  1.124999147961E+00      243
 H   1.842049569523E+01  1.673833125529E+01  6.288111786148E+00  0.000000000000E+00 -2.083440266870E+00 -3.592827517983E+00 -1.973677536765E+01 -1.349722425542E+00 -5.781722686586E+01 -1.893179961846E+00      247
 H   1.156456074584E+01  6.695847575608E+00  6.202624119420E+00  0.000000000000E+00 -4.759128597958E+01  1.473323885393E+01 -8.347102132082E+00  1.364797236506E+01 -1.556285981541E+01 -2.755521838224E+01      248
 H   6.060970210858E+00  9.652633842935E+00  9.738444460902E+00  0.000000000000E+00 -1.185549165101E+01 -2.510636782738E+01 -7.933357019215E+00 -2.532956006415E+01 -4.937527831946E+00 -1.888092433290E+01      249