     8448
Lattice="     49.70      0.00      0.00      0.00     49.70      0.00      0.00      0.00     49.70" pbc="T T T" config_type=md Properties=species:S:1:pos:R:3:charge:R:1:forces:R:3:id:I:1
 Si  1.079574297348E+01  1.738046991062E+01  1.604952876776E+01  0.000000000000E+00 -2.105639862139E+00 -8.335547714212E+00 -3.567892594540E+01 -7.697237964351E+00 -2.399949055514E+01 -3.389948274651E+00        1
 Si  1.243625372348E+01  2.002068008235E+01  1.678116080531E+01  0.000000000000E+00 -2.037679845252E+01 -1.825357739255E+01  4.010201091794E+01 -1.529999062153E+01  2.971896809660E+01 -3.280387904521E+01        2
 Si  1.084006616416E+01  2.245101526592E+01  1.806774082371E+01  0.000000000000E+00  3.596560337211E+00 -8.132383902511E+00  9.387585237854E+00 -6.544639647212E+00  5.632250655624E+00  7.448887286548E+00        3
 O   1.102000139805E+01  1.895443316635E+01  1.649647546019E+01  0.000000000000E+00  2.302194407230E+01  5.525133592540E+01  4.791922047969E+00  4.808649771992E+01  3.201107278667E+00  3.959780806879E+01        4
 O   9.212231431337E+00  1.709004061189E+01  1.623227368285E+01  0.000000000000E+00  2.918152668458E+00  1.522355553987E+01 -1.965779759270E+00  1.445946943961E+01 -1.115630406390E+00  5.413601252567E+00        5
 O   1.128278634625E+01  1.741024614704E+01  1.444583389432E+01  0.000000000000E+00 -2.003056492542E+00 -5.589842621993E+00  2.347295776168E+01 -4.638069865911E+00  1.833333882121E+01 -3.090877156704E+00        6
 O   1.187076614278E+01  1.652485202014E+01  1.694158424958E+01  0.000000000000E+00  3.401265032408E+00 -4.255688048981E+00 -3.913860505459E+00 -4.363010182112E+00 -2.742395403601E+00  4.734774543257E+00        7
 O   1.291707075177E+01  2.143215549786E+01  1.595703653825E+01  0.000000000000E+00  1.983790095151E+01 -2.363372159768E+01  1.327721076200E+01 -1.759618434583E+01  1.074777703165E+01  3.291527824803E+01        8
 O   1.379100477644E+01  1.900898206158E+01  1.725852250833E+01  0.000000000000E+00 -2.505931979109E+01  4.209970438664E+01 -9.682012429737E-01  3.822291448312E+01 -7.736738738767E-01 -3.454078713669E+01        9
 O   1.174896191854E+01  2.110768102828E+01  1.798338036387E+01  0.000000000000E+00  1.983229628552E+01 -4.608469961053E+01  2.590349849766E+01 -3.926336962077E+01  1.692335986050E+01  3.562985282916E+01       11
 O   1.900680747650E+01  1.770886161591E+01  2.112000256145E+01  0.000000000000E+00  2.568652274727E+01 -1.770208933283E-01  5.733891057196E+00 -2.111192577824E-01  5.160177566186E+00  2.393242933027E+01       13
 Ca  3.433928437650E+00  1.585822179448E+01  1.697908860605E+01  0.000000000000E+00 -2.203661431208E+00 -1.008103665169E+00  9.379545922708E+00 -1.079356921401E+00  1.917756957819E+00 -9.989830056661E+00       14
 Ca  2.123664590839E+01  1.390761452564E+01  1.817987596196E+01  0.000000000000E+00  9.979717721048E+00 -6.827346598536E+00  2.410396602936E+00 -8.924630034998E+00  2.815681430524E+00  6.535592660808E+00       15
 O   6.580742552815E+00  4.253480801403E+00  1.575850284811E+01  0.000000000000E+00 -4.752496484670E+00 -2.065060092624E+00  2.234461920343E+01 -7.159717166708E+00  9.331101300406E+00 -3.117141363601E+00       16
 O   9.761999468800E+00  1.621316762564E+01  2.002013736108E+01  0.000000000000E+00  5.505066079035E+00  1.040187570195E+01 -3.843114274050E+01  1.284431180719E+01 -1.873937167622E+01  9.143061256544E+00       18
 Si  2.057274166406E+01  1.966120035944E+01  1.809151725788E+01  0.000000000000E+00 -1.240720881844E+01  3.763211536695E+01  3.325818819395E+01  3.462769577468E+01  3.781949872838E+01 -1.185746763674E+01       19
 Si  1.812604483354E+01  2.140496590074E+01  1.833606154036E+01  0.000000000000E+00 -3.131425768133E+01  6.664760853188E+01 -5.997445249919E+00  5.709210924350E+01 -5.928751997666E+00 -3.697886792355E+01       20
 O   1.894296167301E+01  2.008801595167E+01  1.834720099052E+01  0.000000000000E+00  3.178874381988E+01 -6.050645633074E+01  5.389679261312E+00 -5.526300447963E+01  5.564690097940E+00  3.371029324560E+01       22
 O   2.129658572034E+01  2.109497260103E+01  1.777501834230E+01  0.000000000000E+00  1.291310689354E+01  1.669692455067E+01  3.535660767114E+00  1.406914082143E+01  4.236142048062E+00  1.279085951573E+01       23
 O   2.091646177606E+01  1.890036426969E+01  1.679590575865E+01  0.000000000000E+00 -4.466307784072E+00 -3.072490778072E+01 -4.637983063745E+01 -2.730384706689E+01 -5.775823993348E+01 -4.035808970144E+00       24
 O   2.101406247520E+01  1.886342559931E+01  1.948916502685E+01  0.000000000000E+00 -1.796416278576E+01 -3.317948214595E+01  1.100574980023E+01 -3.428011522315E+01  1.186687647059E+01 -1.612566102166E+01       25
 O   1.853418901747E+01  2.233222141657E+01  1.970984771897E+01  0.000000000000E+00 -2.297596320196E+01 -1.406958989943E+01 -1.183647582615E+01 -1.241746036873E+01 -1.113045029017E+01 -2.768420549728E+01       26
 O   2.154460568565E+01  1.704891053592E+01  2.143011292051E+01  0.000000000000E+00  2.034252041990E+00  7.669965907765E-02 -9.525664126769E+00  9.640981759714E-02 -9.576556048328E+00  1.609766341396E+00       27
 O   1.870560161241E+01  2.230092698281E+01  1.703766082401E+01  0.000000000000E+00  4.443080569753E+00 -9.540746481658E+00 -8.424203243239E+00 -7.289024473631E+00 -9.248909894249E+00  5.297066484033E+00       29
 Ca  4.497216790193E+00  1.073138363966E+01  1.514918148728E+01  0.000000000000E+00 -7.115297735079E-01 -8.137263516393E+00 -8.660337031783E+00 -1.148713772231E+01 -2.570925243768E+00 -1.697872112192E+00       32
 Si  1.354248321484E+01  1.970268435810E+01  1.240487851132E+01  0.000000000000E+00 -1.907208148103E+01  1.176875262329E+00  1.475792287052E+01  7.409647531689E-01  1.611131641294E+01 -2.774758480491E+01       37
 Si  1.246902201137E+01  2.185820555430E+01  1.449953134730E+01  0.000000000000E+00 -2.514628294276E+01  2.912008996284E+01 -4.602392937727E+01  1.931666605492E+01 -3.957875428587E+01 -4.408145410188E+01       38
 O   1.301289065628E+01  2.072174976402E+01  1.352608433710E+01  0.000000000000E+00 -3.688795093971E+00  4.816681168870E+01  2.342545972196E+01  3.144079841568E+01  2.253667346275E+01 -5.874043737632E+00       40
 O   1.417098693499E+01  1.865893074300E+01  1.351057716636E+01  0.000000000000E+00  1.555778475396E+01 -3.264368879517E+01 -1.126091021495E+01 -2.363667471285E+01 -1.181135413884E+01  2.048492667239E+01       41
 O   1.442300359669E+01  2.050745091479E+01  1.134809565421E+01  0.000000000000E+00  1.814143421146E+01 -1.717940596419E+01 -3.890301941515E+00 -9.506473670185E+00 -4.944427735228E+00  2.579452810375E+01       42
 O   1.207400241340E+01  1.946657050109E+01  1.176888010604E+01  0.000000000000E+00  1.151728558440E+00 -4.248763508531E+01 -6.998677068290E+00 -2.568669624063E+01 -7.180126150639E+00  1.856899180020E+00       43
 O   1.248823809769E+01  2.348709198947E+01  1.376179239531E+01  0.000000000000E+00  2.573499165200E+01 -6.935264826137E+01  7.493696157550E+00 -4.063579892590E+01  6.800208807038E+00  4.840075209573E+01       44
 O   1.081120052205E+01  2.185962504997E+01  1.458807407938E+01  0.000000000000E+00 -2.822703187724E-01 -3.285636740106E+00 -6.521332439299E+00 -2.192677690173E+00 -4.832950003444E+00 -5.707343341302E-01       46
 O   8.230276065958E+00  2.150400690622E+01  1.464763131857E+01  0.000000000000E+00  1.201361140568E-01 -1.912310809031E+01  5.571897970549E+00 -1.302586249128E+01  3.130762750074E+00  3.138907863675E-01       47
 O   1.812999262983E+01  1.628726788928E+01  8.874893828107E+00  0.000000000000E+00  2.404259587906E+01 -2.014113320983E+01  7.146324599992E+00 -1.097485594454E+01  1.459880138711E+01  2.159891665878E+01       48
 Ca  6.859174617878E+00  2.069625509986E+01  1.287209810996E+01  0.000000000000E+00  5.985178167821E-01  5.479735671561E+00  3.989034494244E+00  3.408138082984E+00  2.125642915321E+00  1.805913700702E+00       49
 Si  2.103067379549E+01  2.079212350574E+01  2.282084709096E+01  0.000000000000E+00 -1.007737688211E+02  1.162855102673E+00  8.209631238493E+01  1.276316893737E+00  7.565629613566E+01 -9.963069504301E+01       51
 Si  1.948030491772E+01  2.257469319106E+01  2.094853104006E+01  0.000000000000E+00  4.200095489845E+01  9.980331913841E+01 -2.586030428775E+01  9.261401300902E+01 -2.404782520679E+01  4.867268118077E+01       52
 O   1.973424554982E+01  2.154947939677E+01  2.209036418070E+01  0.000000000000E+00  2.544462480208E+00 -4.948131417578E+01  2.219926734737E+01 -5.072327874641E+01  1.983153330003E+01  2.778512188605E+00       54
 O   2.004267303720E+01  1.941725433080E+01  2.341292314352E+01  0.000000000000E+00  4.456413353415E+01  2.005930129941E+01  5.116346532555E+00  2.418709008156E+01  4.379857229635E+00  4.317353844262E+01       55
 O   2.228608075973E+01  2.043636318766E+01  2.202613648808E+01  0.000000000000E+00  4.068882113213E+01 -3.588652398576E+01 -3.276700907677E+01 -3.867818692273E+01 -3.315371313234E+01  3.731169851257E+01       56
 O   2.125039709469E+01  2.176103966231E+01  2.413583738912E+01  0.000000000000E+00  1.422070601411E+01 -1.067813134428E+01 -2.491038983313E+01 -1.184344340825E+01 -2.193235176402E+01  1.456242658526E+01       57
 O   1.650599268217E+01  2.127185853202E+01  1.826677482536E+01  0.000000000000E+00  1.219730786169E+01  1.928243787914E+00 -1.957774008987E+00  1.655840039986E+00 -1.769059058023E+00  1.571910349783E+01       58
 O   1.522811177469E+01  1.431353625348E+01  1.224658059335E+01  0.000000000000E+00  1.258414459898E+01  1.230043585925E+01  2.438591355949E+01  1.052418329167E+01  3.032286560165E+01  1.182836142798E+01       59
 H   3.238316596610E+00  7.591317467099E+00  1.502439253255E+01  0.000000000000E+00  1.415713682100E+00 -1.241276685704E+01  7.964072189486E-01 -2.456678731769E+01  1.236916104526E-01  3.284312612280E+00       70
 H   1.377776593912E+01  1.910897332263E+01  1.824422182150E+01  0.000000000000E+00  3.186515944335E+00 -5.984241301273E+00 -1.010765376005E+01 -5.713432317400E+00 -7.633150323547E+00  4.419515358402E+00       73
 H   1.713437411272E+01  1.225830859437E+01  1.694585443831E+01  0.000000000000E+00  1.253568251076E+01 -2.157013680511E+01 -6.232933689863E+00 -2.981850193279E+01 -6.302273989823E+00  8.968303344320E+00       83
 Si  1.759118657914E+00  2.085551787971E+01  2.158579317026E+01  0.000000000000E+00  1.262117702880E+01 -7.490428789478E+01  1.162199166403E+01 -7.752713096783E+01  1.929165792578E+00  2.288187096061E+01       89
 Si  2.385103791110E+00  2.063040827799E+01  1.845409504054E+01  0.000000000000E+00  3.184040860935E+00 -1.189888878206E+01  6.794084889462E+00 -1.064366838999E+01  1.079223839598E+00  1.030076323318E-01       90
 O   1.509833669092E+00  2.024472075876E+01  1.989050385327E+01  0.000000000000E+00  6.477383066653E+00  8.450959947647E+00 -2.068760398404E+00  8.303095577634E+00 -8.060767993853E-01  7.250730410416E+00       92
 O   1.339570613221E+00  1.969118777898E+01  2.281110657954E+01  0.000000000000E+00  2.952813519232E+01  3.484441104303E+01 -4.544034325624E+01  4.036524271290E+01 -2.411876083370E+01  1.380387542437E+01       95
 O   1.627303076839E+00  1.992674420275E+01  1.707628720426E+01  0.000000000000E+00  2.212985209586E+01  1.129208412327E+00  9.834721905107E+00  9.676787620779E-01  4.343185032047E+00  2.346981492828E+01       96
 O   3.924212787708E+00  2.011856799076E+01  1.857342362286E+01  0.000000000000E+00 -1.483706672886E+00 -1.263931314222E-02  7.222652077259E-02 -1.166858980223E-02 -3.378008217656E-02 -6.746815940670E+00       97
 O   1.152197704954E+01  1.488715667150E+01  2.074473729477E+01  0.000000000000E+00  2.754326220461E+00 -4.327908793559E+00  2.490009072328E+00 -6.030791032780E+00  1.382993044301E+00  3.558771710108E+00       98
 O   4.006746566557E+00  1.178807786847E+01  2.068262670574E+01  0.000000000000E+00  1.614209016954E-01  1.209966732483E+01  1.062638210876E+01  2.122932214526E+01  2.141115576975E+00 -3.389185746816E-02      101
 Ca  2.181692427231E+01  2.385115772451E+01  1.800270400452E+01  0.000000000000E+00  1.438521259146E+01 -1.203320182384E+01  2.311203859226E+01 -9.082585137520E+00  2.800876999474E+01  1.572650526431E+01      102
 O   1.590504332567E+01  4.629519428972E+00  1.185280684827E+01  0.000000000000E+00 -4.041004904157E+01 -4.319435829720E+00  3.606896158765E+00 -9.137611700014E+00  4.840021474300E+00 -1.178844850520E+01      105
 Si  5.431561321745E+00  1.558929099228E+01  2.012884540511E+01  0.000000000000E+00  1.504170038039E+01  2.586391293689E+01  8.215866946810E+00  3.339540620133E+01  2.216966956365E+00  4.317164630174E+01      107
 Si  8.500644863035E+00  1.671369372317E+01  2.076924894747E+01  0.000000000000E+00 -1.820478759634E+01 -1.845290565221E+01  1.951265438183E+01 -2.293047830375E+01  7.986333336108E+00 -3.579366613747E+01      108
 Si  7.727930678902E+00  1.976781328532E+01  2.001297942509E+01  0.000000000000E+00 -2.381281547749E+01 -5.857724452665E+01 -6.406617973707E+01 -5.930373646138E+01 -2.473889496181E+01 -6.091246282033E+01      109
 O   7.146646853069E+00  1.601676123660E+01  2.020642326560E+01  0.000000000000E+00 -1.463036471174E+01 -1.538418702825E+01 -5.563262431979E+00 -1.940838038965E+01 -1.967625414438E+00 -3.278895168740E+01      110
 O   4.974025201872E+00  1.590155522233E+01  1.863768833614E+01  0.000000000000E+00  6.723279319565E-01  2.139030674694E+00 -2.422723429409E+01  2.507087294230E+00 -6.465762908845E+00  2.149377878805E+00      111
 O   4.834584756673E+00  1.681751019770E+01  2.098034618460E+01  0.000000000000E+00 -4.337319089880E-01  5.678954587194E+00  7.479521546646E+00  7.084665435329E+00  1.723535948285E+00 -1.508772970090E+00      112
 O   5.317055063316E+00  1.408300683949E+01  2.067660448531E+01  0.000000000000E+00 -2.258348307528E+00 -1.948994892544E+01  2.560250021830E+01 -2.861505145621E+01  6.583764926972E+00 -5.981569549711E+00      113
 O   8.688265048005E+00  1.618983216675E+01  2.236009575215E+01  0.000000000000E+00 -1.694024674414E+00  7.414378683173E+00 -1.245941885372E+01  1.024014428259E+01 -4.841246412587E+00 -3.156668795619E+00      114
 O   1.137764633582E+01  1.373844263289E+01  3.458666949646E+01  0.000000000000E+00  2.145191146178E+01  1.802563317872E+01  6.949727896592E+01  4.537971543618E+01  2.286185611068E+01  2.590305993742E+01      115
 O   8.339547270974E+00  1.827139905331E+01  2.044561446819E+01  0.000000000000E+00 -2.607174252593E+00  4.025860633643E+01  4.736965599665E+00  4.504920185803E+01  1.932157558818E+00 -5.712147149337E+00      117
 O   6.169749343429E+00  2.011618908944E+01  2.043100056728E+01  0.000000000000E+00  3.205674727119E+00 -1.330326156733E+01  1.767635699714E-01 -1.351145306003E+01  5.337902645454E-02  1.045195766966E+01      118
 O   6.259903911903E+00  9.103103573646E+00  2.251288340245E+01  0.000000000000E+00  1.819479193449E+00  1.439208895407E+01 -2.593919359731E+01  3.559307195832E+01 -7.212619395245E+00  2.645872489603E+00      119
 Ca  2.307972287416E+01  1.882390649617E+01  2.050024601871E+01  0.000000000000E+00 -2.329456946427E+01  2.834619933821E+01  2.194708541516E+01  3.087053477698E+01  2.470861319493E+01 -1.899913616186E+01      120
 Ca  3.501565020791E+00  1.259817957231E+01  1.835916720834E+01  0.000000000000E+00 -1.169352529033E+01  7.566810433052E-01  1.941562781831E+01  1.102701681436E+00  5.066268582012E+00 -1.937416743012E+01      121
 Si  8.680948040765E-01  1.735077457266E+01  1.391709020644E+01  0.000000000000E+00 -1.710843349273E+02 -3.612384136897E+01  3.010370118896E+01 -2.897500378612E+01 -9.213386309918E+01  3.459503618305E+01      125
 Si  2.611785656691E+00  1.918304911486E+01  1.584951775459E+01  0.000000000000E+00  1.843438998068E+00  3.916351057535E+01  1.186127040704E+00  3.235787764915E+01 -2.461314578020E+00  2.237340965572E+01      126
 Si  3.247993917105E+00  2.049732635624E+01  1.303898172927E+01  0.000000000000E+00  7.757499903497E-01  7.394447421280E+00  3.165115475221E+00  4.703836156406E+00 -6.533927620638E-01  2.210804931738E+01      127
 O   1.562659509646E+00  1.843526690576E+01  1.498693774068E+01  0.000000000000E+00  3.149694142841E+01 -2.512008111935E+01 -2.711208344786E+01 -2.042135292648E+01  2.531399668875E+01 -4.550093844598E+01      128
 O   1.800708404592E+00  1.679438628438E+01  1.273414418720E+01  0.000000000000E+00  3.463627319380E+01 -1.188606560387E+01  3.391127173323E+00 -9.012468253098E+00 -6.884797891165E+00  1.509842636486E+01      129
 O   2.992185784925E-01  1.606559224444E+01  1.501112790783E+01  0.000000000000E+00  7.497775517992E+00  3.389654837707E+01 -7.655965430679E+00  3.167175013411E+01  1.416679529011E+01  6.800674090832E+00      131
 O   3.568899323455E+00  1.802337660963E+01  1.637972107340E+01  0.000000000000E+00  5.019318541316E+00  5.810949614629E+00 -4.935327016068E-01  5.281015645446E+00 -3.192427241622E-01  2.668884731330E+01      132
 O   2.331974705161E+00  4.690562553028E+00  9.866936861798E+00  0.000000000000E+00 -4.049850029594E+00 -6.108041888665E+00  1.332897587457E+01 -1.284870694791E+01  2.945408549444E+00 -1.239698479537E+01      133
 O   3.108613068327E+00  2.043168369845E+01  1.466196070133E+01  0.000000000000E+00  2.662663788849E+00 -2.750535546661E+01  3.731556122836E+01 -1.973809143092E+01  8.749595592713E+00 -7.398738097197E+00      134
 O   1.736625990778E+00  2.089964594899E+01  1.252303303687E+01  0.000000000000E+00  4.863030300722E+01 -2.117599713753E+01  6.314353005432E+00 -1.268862220868E+01  9.167213900796E-02  1.126267506958E+01      135
 O   8.145158113469E+00  1.517030461688E+01  1.203332634909E+01  0.000000000000E+00 -4.634086220430E+00 -1.070155951842E+00 -1.406636928480E+01 -8.488646825593E-01 -9.521291003279E+00 -8.630955790605E+00      136
 Si  8.740259592119E+00  1.436353754607E+01  2.577851357860E+01  0.000000000000E+00 -2.118458850906E+00 -2.818373506944E+01 -3.251909399875E+01 -5.058188450113E+01 -1.102566765081E+01 -3.481425571414E+00      139
 Si  8.958438849016E+00  1.674085485092E+01  2.386666278134E+01  0.000000000000E+00 -1.261971533340E+01  2.095272316983E+00 -1.718365647005E+01  2.987132871638E+00 -6.449948076099E+00 -2.358277220139E+01      140
 O   8.372448825117E+00  1.563342065125E+01  2.489810722012E+01  0.000000000000E+00 -3.384755281357E+00  9.125176403172E+00 -1.968841045984E+01  1.453294359289E+01 -6.620591981777E+00 -6.320170385068E+00      142
 O   7.723481738737E+00  1.299894899578E+01  2.532561211999E+01  0.000000000000E+00  5.996268843740E+00  2.140561136808E+01  1.698435773680E+01  4.170415707264E+01  5.179672507140E+00  1.009197606745E+01      143
 O   7.961858401177E+00  1.798931043113E+01  2.409343681159E+01  0.000000000000E+00  6.721351153051E+00  7.437500308383E+00 -4.359457175242E+00  9.961190252523E+00 -1.440615591985E+00  1.518646355115E+01      148
 O   1.307584637893E+01  1.607192717449E+01  9.899880639761E-01  0.000000000000E+00 -1.474933988057E+01  4.270484641318E-01  1.062348201443E+02 -1.044624796301E+01  1.536547187747E+01 -1.812886979265E+01      150
 Ca  4.569459367813E+00  1.195000038794E+01  7.352447516029E+00  0.000000000000E+00 -1.688706594392E+00 -6.506513325685E+00  3.582319339681E+00 -4.003246542797E+00  2.439161915603E+00 -2.324541324403E+00      151
 Ca  1.236275633540E+01  2.173667108217E+01  1.058808519747E+00  0.000000000000E+00 -5.072133959090E+00 -1.277518681326E+01 -4.336573605184E+01  7.797521108827E+00  1.329310249576E+00 -8.918019943316E+00      152
 H   7.210590597626E+00  1.831320579388E+01  1.534727623255E+01  0.000000000000E+00  2.142126668941E+01 -8.011170011473E+01  6.926640766245E-01 -6.713714709253E+01  3.254334516785E-01  5.440498388272E+01      155
 H   1.175677849370E+01  1.364350700828E+01  3.372411925299E+01  0.000000000000E+00 -2.205238279414E+00 -3.815475082126E+00 -4.166524404598E+01 -9.431118890349E+00 -1.452518422972E+01 -2.559135050152E+00      156
 H   1.617003461987E+01  1.435051388665E+01  1.267093920238E+01  0.000000000000E+00 -4.852875934989E+01  2.647339129251E+00 -1.244759156780E+01  2.337496302905E+00 -1.588500926178E+01 -4.306809795552E+01      159
 H   1.577368334692E+01  4.078919455588E+00  1.267169437694E+01  0.000000000000E+00  1.666512854082E+01 -7.413104051689E-01 -2.279857034343E+00  3.320306130858E-01 -2.837958513380E+00  4.302375138891E+00      160
 H   1.651965419841E+01  1.712995418740E+01  1.596202666565E+01  0.000000000000E+00  2.010485646927E+01 -1.718758899725E+01  1.251482130759E+00 -1.601573190979E+01  1.295202198862E+00  2.084760771179E+01      164
 H   1.915936908206E+01  6.342820282922E+00  5.154953556842E+00  0.000000000000E+00  6.214268263610E+01  1.026169818294E+01  2.282477551197E+00  8.339914294875E+00  8.483263591552E+00  2.057269559197E+01      168
 H   5.264564066927E+00  1.956922038533E+01  3.347440325428E+01  0.000000000000E+00 -2.332201038174E+00 -2.803597130484E+01 -2.149999899549E+00 -4.795732229513E+01 -3.381333530902E-01 -8.669161495374E+00      169
 Si  1.260082307960E+01  6.489024303393E-01  1.966741153375E+01  0.000000000000E+00  1.239298315148E+01 -1.599795464227E+02  1.233960910626E+01 -8.290054342284E+01  7.905932661885E+00 -9.873117020447E+01      177
 Si  1.140017742903E+01  3.534822682584E+00  1.903986204895E+01  0.000000000000E+00 -1.980336633441E+01 -2.289662494527E+00 -1.438293346534E+00 -1.175248369468E+01 -8.611826757635E-01 -5.702718491972E+00      178
 Si  8.553489113420E+00  3.719743632907E+00  1.971483883367E+01  0.000000000000E+00 -2.211174726312E+01  8.433784685492E+00  4.462315713555E+01  4.436263731688E+01  1.936022363589E+01 -9.720154524506E+00      179
 O   1.181361861843E+01  1.873914178514E+00  1.916352986517E+01  0.000000000000E+00 -9.397754262348E+00  3.874342637738E+01 -4.118691102845E+01  9.739612839858E+01 -2.539023146491E+01 -8.560310095802E-01      180
 O   1.200189539743E+01  5.738986743474E-01  2.117325810654E+01  0.000000000000E+00  4.056254697187E+00  8.915140054233E+00 -1.650683501840E+01  3.711487934918E-02 -9.356770046281E+00  3.210990737163E+00      182
 O   1.164502477353E+01  4.375567026736E+00  1.763401365257E+01  0.000000000000E+00  6.219050198235E+00  7.324928725828E-01  7.938245445313E+00  3.512998804917E+00  5.242202183254E+00  2.280877078999E+00      184
 O   1.184513558885E+01  4.205302098235E+00  2.044301004958E+01  0.000000000000E+00 -2.054375164896E+00 -1.095895922497E-01 -2.255298942790E+01 -5.946838839837E-01 -1.306770466088E+01 -7.296785702084E-01      185
 O   9.560554774971E+00  3.291627401522E+00  1.862762821715E+01  0.000000000000E+00  3.319036785456E+01 -3.679788312518E+00 -3.186445895756E+01 -1.995120533973E+01 -1.635430456777E+01  1.122848893226E+01      187
 O   6.966295083475E+00  3.874746339718E+00  1.941904799615E+01  0.000000000000E+00 -9.153731281235E-01  2.191340318710E+00 -1.702199016818E+01  1.186450529085E+01 -6.106386185515E+00 -5.580399838025E-01      188
 Ca  1.152442322223E+01  4.984434631950E+00  2.259923047986E+01  0.000000000000E+00 -5.366080376198E+00 -2.780989345333E+00 -7.200415192436E+00 -1.260889625764E+01 -3.671834407254E+00 -2.320886377494E+00      190
 O   1.556443365734E+01  1.943034396983E+01  7.805627821621E+00  0.000000000000E+00  4.739126735636E+01  2.050295185703E+01 -2.396908695419E+00  8.236519728582E+00 -4.779439556318E+00  5.916235991446E+01      193
 O   4.174191892387E+00  1.233742001471E+01  1.292766375683E+01  0.000000000000E+00  1.262081135762E+01  1.344690578680E+01  1.112465198237E+01  1.409022926788E+01  3.592020413272E+00  3.730260962115E+01      194
 Si  1.816839427772E+01  1.624214470174E+00  2.010747921886E+01  0.000000000000E+00  4.648587653027E+01 -6.276557513113E-01  1.319062830467E+01 -6.334579035448E+01  1.191857682416E+01  5.152439280641E+00      196
 Si  1.687347980980E+01  4.160386910034E+00  1.919998128339E+01  0.000000000000E+00 -4.294856366837E+00  8.790883111750E+00 -2.421173012028E+01  4.068021482567E+01 -2.127794466645E+01 -9.938413707247E-01      197
 O   1.983257243686E+01  1.505003644579E+00  2.070820262206E+01  0.000000000000E+00 -4.336413651082E+00  1.662233120197E+01 -4.066969966856E+01  1.884197595301E+01 -3.895001316062E+01 -5.503833498090E+00      202
 O   1.769954410803E+01  3.094366915155E+00  2.017312403060E+01  0.000000000000E+00 -1.814176336901E+01  1.287690720157E+01 -5.443586001978E+00  6.595043717207E+01 -4.776106586254E+00 -2.866803435192E+00      205
 O   1.566355489381E+01  5.129579816470E+00  1.988870370376E+01  0.000000000000E+00  1.555506444266E+01 -7.973762969315E+00 -1.614444055911E+01 -3.091633521162E+01 -1.271472161756E+01  5.094050817320E+00      206
 Ca  1.445824928210E+01  5.369566402657E+00  1.794198272989E+01  0.000000000000E+00 -1.265299502560E+01  3.098582706838E-01  7.207397483350E+00  1.035366978341E+00  5.807961754185E+00 -4.699123362508E+00      209
 O   2.367673862798E+01  1.929911616467E+01  1.490624873545E+01  0.000000000000E+00  7.477180298538E+00  1.347836853987E+01 -7.708446120929E+00  1.041042047154E+01 -1.224391644553E+01  6.094714877461E+00      210
 O   1.480853790796E+01  1.798096708601E+01  4.819135605551E+00  0.000000000000E+00  1.133275568722E+01  2.974200150641E+01 -2.908639930822E+00  7.971247472633E+00 -8.937848652061E+00  1.376056895504E+01      212
 Si  1.318292993302E+01  3.519977980936E+00  1.493688658555E+01  0.000000000000E+00 -2.118375582549E+00 -3.449749999602E+00 -3.127565982000E+00 -1.130981315131E+01 -2.760313065609E+00 -6.110784723188E-01      213
 Si  1.132241937788E+01  5.101184750062E+00  1.603504751476E+01  0.000000000000E+00  7.219581594123E+00 -6.202997280905E+00  4.113737950810E+01 -1.949848143258E+01  2.904728922499E+01  3.252698765223E+00      214
 Si  9.286911764556E+00  6.144190691683E+00  1.472687336071E+01  0.000000000000E+00 -1.960706039373E+01  5.498198718787E+00  1.231083435677E+01  1.317850963728E+01  7.763333711035E+00 -1.297196754062E+01      215
 O   1.142854201930E+01  3.825859843133E+00  1.509802434398E+01  0.000000000000E+00  2.433701333382E+01 -7.644776448885E+00 -2.101314979201E+01 -3.105001539956E+01 -1.590603246389E+01  8.176742590416E+00      216
 O   1.402415983292E+01  3.695081859942E+00  1.637807351738E+01  0.000000000000E+00 -1.987756041178E+00 -4.421167927901E-01 -3.199221452109E+01 -5.783057367499E+00 -2.739418218979E+01 -4.858484167436E-01      217
 O   1.378499449867E+01  4.428283522099E+00  1.378259377355E+01  0.000000000000E+00  2.871572034567E+00  5.319545600587E+00 -9.158352804785E-01  1.655655869975E+01 -9.159948055140E-01  9.224621108421E-01      218
 O   1.317056890228E+01  2.034914134307E+00  1.435791488944E+01  0.000000000000E+00  1.919445036245E+00  4.707918957910E+00  9.954025552487E+00 -2.833168904123E+00  9.130864781104E+00 -1.163495426398E+00      219
 O   1.271772198871E+01  5.840766200614E+00  1.586667790619E+01  0.000000000000E+00  7.867017708783E+00  1.548561758567E+01  1.181302417868E+01  4.206730726263E+01  9.468570436639E+00  3.613022141379E+00      220
 O   9.755559331028E+00  5.350686631865E+00  1.607495149641E+01  0.000000000000E+00 -1.505828910899E+01  2.018368655484E+00  2.061941792919E+01  6.063741061861E+00  1.251350307492E+01 -8.259104732005E+00      222
 O   1.063470618988E+01  6.529070438017E+00  1.412050719988E+01  0.000000000000E+00  2.321325976558E+01  4.936920856039E+00 -1.673514842129E+01  1.067714418994E+01 -1.260389474578E+01  1.425154634265E+01      223
 O   2.110226228753E+01  2.025858483421E+01  1.297686312317E+01  0.000000000000E+00 -1.118983968450E+01  1.163023934305E+01  2.889925408226E+01  7.449879904229E+00  4.699438021113E+01 -1.074246511776E+01      224
 Ca  1.577418793580E+01  8.065595798052E+00  6.713818782285E+00  0.000000000000E+00  5.782144210978E+00 -4.065069481792E+00 -9.497813942733E+00 -3.383772324016E+00 -2.231521388501E+01  2.956503259731E+00      225
 Ca  1.634890652679E+01  4.368031114032E+00  1.566345586002E+01  0.000000000000E+00  2.294845213585E+00  3.790069078720E-01  5.366347622591E+00  2.783809535361E+00  5.601185106026E+00  7.343079528604E-01      226
 Si  2.110092943583E+01  2.506451008196E+00  2.021063930818E+01  0.000000000000E+00  1.805946146285E+01  2.201115123734E+00 -4.937487726969E+01  7.707426343276E+00 -5.154986862531E+01  4.998917880790E+00      228
 Si  2.250293232966E+01  4.482898500035E+00  2.150541155241E+01  0.000000000000E+00  3.571004418515E+01  2.068005051545E+00  1.234851263632E+01  1.368282407832E+01  1.292129395198E+01  7.117803982967E+00      229
 O   2.242050537144E+01  1.335400829412E+00  2.038185907512E+01  0.000000000000E+00 -1.817090402023E+01  4.838304855465E+01  2.534770320216E+00  1.735500436956E+01  2.788304608050E+00  5.563722280684E-01      230
 O   2.099193502207E+01  3.860751252077E+00  2.126338830825E+01  0.000000000000E+00  2.769102162145E+01 -1.021896475192E+00 -1.178540274873E+01 -9.712570592855E+00 -1.163494759744E+01  5.119197891597E+00      236
 O   2.314600992661E+01  4.285105369610E+00  2.313141731912E+01  0.000000000000E+00 -4.956080871429E+00  4.648033810835E+00 -1.930130479237E+00  2.668242422776E+01 -1.931348114806E+00 -9.618133724970E-01      237
 H   1.562664095234E+01  1.832336567235E+01  4.284724592656E+00  0.000000000000E+00 -1.936998966615E+01  2.421519824686E+01  8.014246230942E+00  5.662467108918E+00  2.922842428875E+01 -2.271271252760E+01      243
 H   1.944669618586E+01  1.676604461929E+01  6.013887720066E+00  0.000000000000E+00 -1.765422001367E+01  1.908090020820E+01  1.007514712102E+01  6.844213650601E+00  3.257931212061E+01 -1.522065432806E+01      247
 H   1.325341692053E+01  6.922975349349E+00  6.072276916549E+00  0.000000000000E+00 -1.009058187109E+01  1.487391161587E+01 -2.690770527837E+00  1.304619843437E+01 -5.872904700002E+00 -5.270855808206E+00      248
 H   6.110508834568E+00  9.500780747980E+00  1.060556469504E+01  0.000000000000E+00  2.533643011360E+01  1.318327831368E+01  1.076535474729E+01  1.471627593112E+01  6.202573571719E+00  3.939375164373E+01      249