     8448
Lattice="     49.70      0.00      0.00      0.00     49.70      0.00      0.00      0.00     49.70" pbc="T T T" config_type=md Properties=species:S:1:pos:R:3:charge:R:1:forces:R:3:id:I:1
 Si  1.085665826367E+01  1.767075365410E+01  1.599774804760E+01  0.000000000000E+00 -1.238657383607E+01 -3.758499109678E+01  3.665487820310E+01 -3.402657462762E+01  2.487534402739E+01 -2.016090859266E+01        1
 Si  1.230793479013E+01  2.007977207803E+01  1.713489305406E+01  0.000000000000E+00  4.794038000700E+01  7.147733297572E+01  1.122198997771E+01  6.099453975716E+01  8.060716832335E+00  7.821230127468E+01        2
 Si  1.097184512427E+01  2.248216531040E+01  1.791054022716E+01  0.000000000000E+00 -1.894177825902E+01  3.103172616608E+01 -1.176814021498E+00  2.472159474598E+01 -7.209062942928E-01 -3.881317912064E+01        3
 O   1.108090817268E+01  1.938889522088E+01  1.654743545031E+01  0.000000000000E+00 -2.727307355424E+01 -6.112632421811E+01 -2.353214457181E+01 -5.216820725427E+01 -1.575818403337E+01 -4.772124786651E+01        4
 O   9.309252691250E+00  1.774841738346E+01  1.640649550911E+01  0.000000000000E+00  1.091806971280E+00 -2.150101522551E+00 -1.256890944439E+01 -1.987536703230E+00 -7.131757906879E+00  2.081568356896E+00        5
 O   1.128257281306E+01  1.707760511168E+01  1.460611414082E+01  0.000000000000E+00  2.429040680829E+00  2.073149373693E+01 -1.524028139096E+01  1.773120773382E+01 -1.177243877649E+01  3.676661186656E+00        6
 O   1.147101002470E+01  1.638932204192E+01  1.710862132709E+01  0.000000000000E+00 -1.340771166862E+01  1.259570734342E+01  1.287801161480E+01  1.314851137431E+01  8.634465484227E+00 -1.915640417968E+01        7
 O   1.278840786906E+01  2.120514212909E+01  1.593720576882E+01  0.000000000000E+00 -7.441031073561E+00  1.709290426623E+01 -1.549994240920E+01  1.284656008525E+01 -1.243753694037E+01 -1.233837105583E+01        8
 O   1.370665334993E+01  1.919303682360E+01  1.714692388141E+01  0.000000000000E+00 -1.034368505707E+01 -1.067028961742E+01  1.155338458384E+00 -9.532761570982E+00  9.235372980270E-01 -1.448396797699E+01        9
 O   1.186845227450E+01  2.126673914906E+01  1.838172924008E+01  0.000000000000E+00  1.861255558287E+01 -6.680204048575E+01 -2.639092748006E+01 -5.773978851609E+01 -1.703971694861E+01  3.335130439282E+01       11
 O   1.895119514681E+01  1.798531807957E+01  2.109935250051E+01  0.000000000000E+00  5.090513975498E+01 -6.068944113533E+01  1.364306786735E+01 -7.119740145310E+01  1.225404625801E+01  4.831068031783E+01       13
 Ca  2.864595415542E+00  1.634015140375E+01  1.735771098612E+01  0.000000000000E+00  5.939041861611E-02  4.887658556603E+00 -8.430084145864E+00  5.192030509882E+00 -7.602226861608E-01  1.171173259763E+01       14
 Ca  2.119817280163E+01  1.382154301213E+01  1.852310801066E+01  0.000000000000E+00  1.301048270810E+01  1.538124838026E+01 -5.108467642788E+00  2.061336602116E+01 -5.846220827578E+00  8.483039931852E+00       15
 O   6.835568981217E+00  3.730616734939E+00  1.565814963832E+01  0.000000000000E+00 -4.293864225428E+00  3.084200611631E+00 -1.682692239696E+01  6.667429070153E+00 -7.345797009408E+00 -2.497879832260E+00       16
 O   9.687593569192E+00  1.597110229519E+01  1.968393392628E+01  0.000000000000E+00 -3.680801627468E+00  3.361665748305E+00  2.009171004810E+01  4.143158389999E+00  9.888283601490E+00 -6.068221060343E+00       18
 Si  2.035386159475E+01  1.953889897092E+01  1.811099401322E+01  0.000000000000E+00  6.987732285212E+01  5.055253229765E+00 -2.867348778568E+01  4.685814749126E+00 -3.222441581077E+01  6.707945542471E+01       19
 Si  1.814276863852E+01  2.128515184473E+01  1.824497470444E+01  0.000000000000E+00  4.354843039972E+01  1.403943679677E+01 -4.518048265114E+00  1.203417157134E+01 -4.492738723925E+00  5.109115218995E+01       20
 O   1.892175515701E+01  1.984646415983E+01  1.863205730354E+01  0.000000000000E+00 -5.855714400554E+01  6.915487524451E+00  1.949193283573E+01  6.492328245466E+00  1.979500033978E+01 -6.141884038584E+01       22
 O   2.146377623416E+01  2.077309994722E+01  1.812734955752E+01  0.000000000000E+00 -6.436728200370E+00  1.108202162588E+01 -1.255934871178E+01  9.670568202467E+00 -1.487095780556E+01 -6.229602693424E+00       23
 O   2.026262234355E+01  1.906285109925E+01  1.653117718065E+01  0.000000000000E+00  1.082642112406E+01 -9.895165908122E+00  1.559070340054E+01 -8.581021800332E+00  1.910986323739E+01  1.018537730836E+01       24
 O   2.111717271773E+01  1.867739241148E+01  1.930669553008E+01  0.000000000000E+00 -2.697611165633E+01 -5.469171223909E+00  9.789472072112E-01 -5.653445689613E+00  1.070747566512E+00 -2.385941668783E+01       25
 O   1.855985785484E+01  2.219277654254E+01  1.951071895532E+01  0.000000000000E+00  4.180517112678E+00  1.912286583873E+01  3.970849689293E+01  1.681181533480E+01  3.777329065370E+01  4.998814260301E+00       26
 O   2.147121583901E+01  1.708276964881E+01  2.131991682139E+01  0.000000000000E+00  1.011821458910E+00  1.950503360441E+00  8.986946274346E+00  2.434299019383E+00  9.050723077702E+00  8.050178917619E-01       27
 O   1.904803666136E+01  2.190034075386E+01  1.701197106977E+01  0.000000000000E+00  1.128470608244E+01 -2.271054013204E+00 -1.890879286414E+00 -1.764132604361E+00 -2.117187821570E+00  1.297450823443E+01       29
 Ca  4.538143032174E+00  1.055854260761E+01  1.535124406513E+01  0.000000000000E+00  1.135822229426E-01  1.614484661266E+00 -1.829321533619E+01  2.347326614625E+00 -5.407850162618E+00  2.642628784294E-01       32
 Si  1.332338900582E+01  1.974170335177E+01  1.254562204762E+01  0.000000000000E+00  5.953914556669E+00 -2.765225277519E+01 -4.289603506357E+01 -1.757268387135E+01 -4.555537858464E+01  8.822110868956E+00       37
 Si  1.212994919617E+01  2.190082685281E+01  1.448291881003E+01  0.000000000000E+00  4.257933120294E+01 -1.402140919916E+01  2.175024024480E+01 -9.272295169418E+00  1.821658414540E+01  7.687769710349E+01       38
 O   1.287131756948E+01  2.107483436280E+01  1.323707218595E+01  0.000000000000E+00 -1.787516954634E+01  4.458414268640E+01  2.498345301647E+01  2.800323385365E+01  2.429313319743E+01 -2.926788460951E+01       40
 O   1.437377930660E+01  1.885123176680E+01  1.331981683347E+01  0.000000000000E+00  3.538236242667E+00 -3.273705660820E+01  5.289961973017E+01 -2.313119922784E+01  5.708542909492E+01  4.640401806198E+00       41
 O   1.419319710764E+01  2.039900239235E+01  1.131786058870E+01  0.000000000000E+00  2.314645139271E+00  3.416924014994E+00 -6.115321738386E-01  1.895792201013E+00 -7.668937616730E-01  3.326695978035E+00       42
 O   1.228480870354E+01  1.864723760161E+01  1.191629782656E+01  0.000000000000E+00 -1.452285133758E+01  2.814708092120E+01 -1.800616996076E+00  1.798706094549E+01 -1.856300980984E+00 -2.204438555618E+01       43
 O   1.270239147531E+01  2.340726791560E+01  1.443513742717E+01  0.000000000000E+00  2.408502018085E+00  3.858304116348E+01  3.050719079203E+00  2.379395594398E+01  2.684520893601E+00  4.438254963420E+00       44
 O   1.060676899561E+01  2.177523773259E+01  1.428016320731E+01  0.000000000000E+00 -2.712383489446E+01  2.374661832045E+00 -4.010835312257E+00  1.557299118393E+00 -2.979097858964E+00 -5.568405923527E+01       46
 O   8.155681665098E+00  2.129762017876E+01  1.473516177913E+01  0.000000000000E+00  5.050143652940E+00  3.061810292534E+01  1.359866913267E+01  2.118371424545E+01  7.526650753989E+00  1.318786654324E+01       47
 O   1.836832358199E+01  1.594864808049E+01  9.090636586839E+00  0.000000000000E+00  6.007946520802E+00  1.305731908510E+01  1.312654334003E+00  7.442595886622E+00  2.652318055831E+00  5.216514415101E+00       48
 Ca  6.590104846930E+00  2.091312550523E+01  1.306624711993E+01  0.000000000000E+00  3.310979319872E+00 -4.288613281460E+00 -1.902331368631E+00 -2.679469452013E+00 -9.594616616243E-01  1.050710537541E+01       49
 Si  2.064037648273E+01  2.070345909959E+01  2.290223960059E+01  0.000000000000E+00  5.481289215863E+01 -1.758149373098E+01 -6.082869721746E+00 -1.944871048004E+01 -5.482115432456E+00  5.498041529844E+01       51
 Si  1.959808111225E+01  2.263721074695E+01  2.075956226280E+01  0.000000000000E+00 -2.856489496827E+01 -4.268331978416E+00  1.999126124392E+01 -3.914294232391E+00  1.887276592997E+01 -3.299453368204E+01       52
 O   1.957743429486E+01  2.139864701581E+01  2.198453280896E+01  0.000000000000E+00 -5.049535849075E+01  3.308408884871E+01 -4.337363403466E+01  3.398991703595E+01 -3.862463113599E+01 -5.519274568906E+01       54
 O   2.011772384039E+01  1.923611198912E+01  2.343286630986E+01  0.000000000000E+00 -2.675008638714E+01 -1.012910144071E+01 -4.227708420872E+00 -1.233897369870E+01 -3.629597393853E+00 -2.557782687268E+01       55
 O   2.199396579152E+01  2.037749166664E+01  2.207025014165E+01  0.000000000000E+00  2.439569820310E+00  5.351815969896E+00  2.160257959747E+01  5.796391386142E+00  2.152791171944E+01  2.260270573974E+00       56
 O   2.099929720760E+01  2.167039352059E+01  2.411369912658E+01  0.000000000000E+00  1.624434991573E+01  6.628232916679E+00  2.453982979785E+01  7.375556615610E+00  2.137039102312E+01  1.676348744818E+01       57
 O   1.670734919143E+01  2.129832640626E+01  1.769480610904E+01  0.000000000000E+00 -3.983316164715E+01 -4.357753240400E+00 -5.695040682786E+00 -3.620453419158E+00 -5.377229496632E+00 -5.077883204773E+01       58
 O   1.446649304840E+01  1.376378595733E+01  1.201138002693E+01  0.000000000000E+00  8.279333390870E+01 -4.298600537883E+01  2.440212777407E+01 -3.751302498060E+01  2.938989616665E+01  7.877166378890E+01       59
 H   3.136089408712E+00  8.156984297936E+00  1.521178852995E+01  0.000000000000E+00  2.385387889287E+00 -9.995168376239E+00 -8.650487477971E+00 -1.863977937276E+01 -1.884539630415E+00  5.490997482392E+00       70
 H   1.375096097913E+01  1.855835421396E+01  1.637290798501E+01  0.000000000000E+00  2.959434343308E+00  9.336728613323E+00  1.348852610521E+01  8.237228188689E+00  1.132848216753E+01  3.994064916585E+00       73
 H   1.702226366112E+01  1.114728487929E+01  1.651515658242E+01  0.000000000000E+00 -8.253048536946E-01  2.129031311585E+01  2.656290479199E-01  3.154246604483E+01  2.737853357417E-01 -5.404632720740E-01       83
 Si  1.767037740145E+00  2.068071819221E+01  2.133084851842E+01  0.000000000000E+00  2.623545523655E+00  3.850622089478E+01  2.196338150041E+01  3.971672343723E+01 -3.605937783629E+00 -5.887617085227E+00       89
 Si  2.245536199752E+00  2.052342411836E+01  1.837783641978E+01  0.000000000000E+00  3.275934858851E+00 -7.938439069608E+00 -4.877981588898E+01 -7.108527982868E+00 -3.828313890903E+00  3.740991465512E+01       90
 O   1.429959223181E+00  2.048556509967E+01  1.971712155796E+01  0.000000000000E+00  1.038429522943E+01 -1.427946168487E+01  2.755351506311E+01 -1.374381816918E+01  6.001854931910E+00 -4.157720645165E+01       92
 O   1.333065047640E+00  1.953340456282E+01  2.231779726703E+01  0.000000000000E+00  2.367563334869E+01 -2.161361259802E+01  4.076766689976E+00 -2.469452893475E+01 -2.238945984537E+01  4.392514451101E+00       95
 O   1.806777558769E+00  1.949362096575E+01  1.716726952270E+01  0.000000000000E+00  4.977745197112E+00  8.072332963337E-01 -1.216417116808E+01  7.108987904407E-01  1.075639130424E+00 -1.369817769696E+01       96
 O   3.747944315778E+00  2.003668984867E+01  1.858408174344E+01  0.000000000000E+00  5.125818859953E+00  1.330494244096E+01  1.286197114467E+01  1.234036858293E+01  2.512402279433E+00  3.098112080983E+01       97
 O   1.191356299130E+01  1.467751730206E+01  2.108407164106E+01  0.000000000000E+00 -5.053137624598E+00  1.001863566522E+01 -1.411522030407E+01  1.439164592786E+01 -7.975810796482E+00 -6.225468818093E+00       98
 O   3.777853928696E+00  1.223836579471E+01  2.017587911363E+01  0.000000000000E+00  4.959438478621E+00 -4.481427077416E+00  7.951884161301E+00 -7.387974218714E+00  1.435831307675E+00  1.645799823646E+01      101
 Ca  2.177358831150E+01  2.397980894018E+01  1.820938234342E+01  0.000000000000E+00 -2.761634199582E+01 -3.644637941881E+01  1.317808251678E+01 -2.767603609877E+01  1.575748908139E+01 -3.041458280613E+01      102
 O   1.573277171795E+01  4.175553484176E+00  1.178348263877E+01  0.000000000000E+00  3.759123965746E+01 -4.514643285757E+00  9.615594165349E+00 -1.274039980078E+01  1.283830532734E+01  9.976896286312E+00      105
 Si  5.512347274113E+00  1.578761499703E+01  1.991400685540E+01  0.000000000000E+00 -3.608775290156E+00 -1.587083837988E+01 -5.361789480587E+00 -2.001898224383E+01 -1.484183762831E+00 -1.033569767263E+01      107
 Si  8.444745585700E+00  1.671067051737E+01  2.052333959325E+01  0.000000000000E+00 -1.136219673586E+00 -1.244794958855E+01 -1.837869595542E+01 -1.528804582556E+01 -7.562288332039E+00 -2.248379469572E+00      108
 Si  7.909282679739E+00  1.953242397114E+01  1.975518587677E+01  0.000000000000E+00 -1.153190813867E+01 -1.059921600818E+00  2.293712283766E+01 -1.072009714202E+00  9.183218498399E+00 -2.847870383211E+01      109
 O   7.149681873317E+00  1.609200558340E+01  1.973392767973E+01  0.000000000000E+00 -3.320244669473E+00  7.144846734476E+00  1.757971908437E+01  8.761859297782E+00  6.369203379856E+00 -7.472975260454E+00      110
 O   5.031915748828E+00  1.581409200227E+01  1.828573300832E+01  0.000000000000E+00 -1.229719951815E+00  2.840033722093E-03  3.764439540761E+01  3.283912751321E-03  1.035908300862E+01 -3.864711856427E+00      111
 O   4.540229332996E+00  1.669233611572E+01  2.087228549256E+01  0.000000000000E+00  3.564962633239E+00 -7.225078753660E+00 -1.508035993288E+01 -9.034320026098E+00 -3.280344768369E+00  1.310672879045E+01      112
 O   5.523080009296E+00  1.427463751169E+01  2.088903726258E+01  0.000000000000E+00  5.096625503864E+00  2.046855756087E+01 -4.552754431760E+01  2.995301710814E+01 -1.203752316261E+01  1.317244752530E+01      113
 O   8.322067001119E+00  1.647209230283E+01  2.214044871734E+01  0.000000000000E+00  5.669577589675E-01 -6.473555948492E+00 -1.367407362094E+01 -8.701228165882E+00 -5.139758380896E+00  1.122194826870E+00      114
 O   1.150915071255E+01  1.400081146982E+01  3.484110096079E+01  0.000000000000E+00 -3.367541962654E+01  2.663045734796E+00  9.305052130582E+01  6.627004835344E+00  3.073761861874E+01 -4.096594206940E+01      115
 O   8.573693149100E+00  1.831178591892E+01  2.054381860470E+01  0.000000000000E+00  1.247168939226E+01 -4.297024575893E+00  1.107248463862E+01 -4.820791036873E+00  4.620956187177E+00  2.663716816390E+01      117
 O   6.353578678447E+00  1.949715639721E+01  2.011474773850E+01  0.000000000000E+00 -1.872097145707E+01  1.183435311512E+01  2.492366077391E+01  1.220921772947E+01  7.872554095163E+00 -5.744883740001E+01      118
 O   6.088138327687E+00  9.243362717935E+00  2.250159832763E+01  0.000000000000E+00  2.370665576473E+00  1.251008823682E+01 -1.967051873496E+00  3.045395806031E+01 -5.322148111085E-01  3.599281196784E+00      119
 Ca  2.276346103450E+01  1.909006769644E+01  2.067783904089E+01  0.000000000000E+00  2.863454567370E+01 -1.586697252159E+01 -1.802496819585E+01 -1.718667052861E+01 -1.984301456080E+01  2.401372157509E+01      120
 Ca  3.343282380283E+00  1.216648498109E+01  1.809651114443E+01  0.000000000000E+00 -2.986065565043E+00  1.495708666591E+01 -1.710503438608E+01  2.224727075722E+01 -1.746017779777E+00  2.591759253098E+00      121
 Si  6.440662267608E-01  1.723032500105E+01  1.404259532934E+01  0.000000000000E+00 -2.607303198352E+02 -2.920411339976E+00 -1.134351050661E+01 -2.380114979839E+00 -7.477812877317E+01  2.333673025440E+00      125
 Si  2.603897903146E+00  1.925349407521E+01  1.564496332327E+01  0.000000000000E+00 -1.188669263742E+00 -3.043477864482E+01  2.399029057069E+01 -2.473062779098E+01  2.214399462686E+00 -4.271201397335E+00      126
 Si  3.261905157004E+00  2.065349967876E+01  1.325802920424E+01  0.000000000000E+00  2.076905542971E+01 -3.024186641847E+01  2.694076618281E+01 -1.941305611170E+01  6.884243225520E+00  1.200119878024E+02      127
 O   1.088590204021E+00  1.852335590013E+01  1.496280635515E+01  0.000000000000E+00  3.417556053508E+01  3.248036478424E+01 -4.617601543095E+00  2.623700647072E+01  1.412245314266E+01  4.120490379537E+01      128
 O   1.823904720616E+00  1.661242643471E+01  1.301632519194E+01  0.000000000000E+00  1.831721170442E+01  2.065345878158E+01 -2.591504993906E+00  1.618259300626E+01 -3.259855698954E+00 -9.532069147505E+00      129
 O   6.300712138741E-01  1.608692831011E+01  1.515594730663E+01  0.000000000000E+00  1.687086332954E+01 -5.156529586012E+01  3.086783889577E+01 -4.858111454477E+01  2.212477863879E+01  5.052643809172E+00      131
 O   3.986625299776E+00  1.829946043561E+01  1.600684693689E+01  0.000000000000E+00 -9.646458729486E+00  6.556323105936E+00 -9.431307042999E+00  5.734926491127E+00 -2.348937764933E+00 -4.427930306717E+01      132
 O   1.992474562963E+00  4.387511101575E+00  9.298037027975E+00  0.000000000000E+00  1.040255835174E+01 -1.117751664098E+01 -1.887846331080E+01 -2.307565091468E+01 -3.395233629161E+00 -1.397795037608E+01      133
 O   3.091020959173E+00  2.066361068765E+01  1.501727571917E+01  0.000000000000E+00 -7.862564478055E-01 -9.567747731505E+00 -3.541742548411E+01 -6.953359113633E+00 -7.243854560106E+00 -1.280720324420E+01      134
 O   1.978663838001E+00  2.060443368153E+01  1.243716654944E+01  0.000000000000E+00 -8.029727054287E-01 -3.571660502821E+00 -2.945493352616E+01 -2.155911548855E+00 -5.278069822360E+00 -7.098744887595E+01      135
 O   8.188997921350E+00  1.516786258485E+01  1.209285716769E+01  0.000000000000E+00 -1.545066392668E+00  3.254895878075E+01 -1.681632964998E-01  2.595025550176E+01 -1.138762218382E-01 -2.861809827471E+00      136
 Si  8.894651247922E+00  1.458122626354E+01  2.549885026164E+01  0.000000000000E+00 -1.618277219364E+01 -7.604846375556E+00  4.656624373779E+01 -1.329893902531E+01  1.624349700961E+01 -2.652882685895E+01      139
 Si  8.857892667273E+00  1.705967671908E+01  2.353100371486E+01  0.000000000000E+00  2.068169347608E+00 -5.409812422250E+00  2.308211530936E+01 -7.461941882072E+00  8.688915374010E+00  3.983148339656E+00      140
 O   8.330690182941E+00  1.578142364458E+01  2.449933754980E+01  0.000000000000E+00  1.025895422955E+01 -7.906971831644E+00  1.117407598527E+01 -1.227491107665E+01  3.799603353547E+00  1.943427246621E+01      142
 O   7.999624456084E+00  1.317882399213E+01  2.534388103751E+01  0.000000000000E+00 -8.822106100567E+00 -1.000945778186E+01  8.246246174261E+00 -1.924894872447E+01  2.602871772830E+00 -1.453380520268E+01      143
 O   8.218955085436E+00  1.840728986291E+01  2.428963852370E+01  0.000000000000E+00  9.769826517437E+00 -2.138738481148E+01 -1.570232307314E+01 -2.822207125042E+01 -5.313240374048E+00  2.188064379807E+01      148
 O   1.271347735258E+01  1.630234899571E+01  1.365473373886E+00  0.000000000000E+00  3.351745571471E+00 -1.817804142493E+00  2.444451945761E+01 -5.588256687154E+00 -1.333701018373E+01  4.297905642618E+00      150
 Ca  4.296495798351E+00  1.184777857404E+01  7.557129189892E+00  0.000000000000E+00 -1.999699692685E+00  1.930873262006E+00 -4.558890834807E+00  1.231611360653E+00 -2.584143129566E+00 -5.442390656037E+00      151
 Ca  1.310831614469E+01  2.164252945991E+01  1.224810776220E+00  0.000000000000E+00 -1.765770204409E+01  1.120530853960E+01 -1.250633273542E+01 -5.939026940902E-01  5.960722422959E+00 -2.915380835076E+01      152
 H   7.698809455585E+00  1.792634961316E+01  1.576964169572E+01  0.000000000000E+00  1.147962742521E+01 -1.663632725035E+01  5.335722152350E+00 -1.463482111708E+01  2.604923368045E+00  2.672982307724E+01      155
 H   1.208441781922E+01  1.382120004487E+01  3.412836764806E+01  0.000000000000E+00  5.007809891632E+00 -1.437786833963E+01 -5.896286457465E+01 -3.550293571450E+01 -2.087799506517E+01  5.727536347576E+00      156
 H   1.549294281248E+01  1.353758587516E+01  1.173024024000E+01  0.000000000000E+00 -6.547174052859E+01  1.830369076024E+01  1.540825561520E+00  1.586004268975E+01  2.035075311351E+00 -5.720858332273E+01      159
 H   1.636938592822E+01  3.753337004301E+00  1.267452109674E+01  0.000000000000E+00 -2.344584953457E+01  3.428972503311E+00 -1.830297250360E+01  1.157918521134E+01 -2.363863835628E+01 -5.375899562833E+00      160
 H   1.608989470149E+01  1.596389162319E+01  1.578415308228E+01  0.000000000000E+00 -1.531460519006E+01  1.965381435815E+01 -8.232303122682E-01  1.943253072636E+01 -8.391764176654E-01 -1.519467355391E+01      164
 H   1.890445266228E+01  6.294778500156E+00  6.976335731328E+00  0.000000000000E+00  1.311257117645E+01  1.153168988854E+01 -2.761189067752E+01  1.278026545494E+01 -7.482261466935E+01  4.366205813933E+00      168
 H   5.103564420370E+00  2.055014524762E+01  3.371135540992E+01  0.000000000000E+00 -4.704498740912E+00  8.088221705797E+00  5.683317070274E+00  1.326827198898E+01  8.603977632116E-01 -1.894325700233E+01      169
 Si  1.237042280233E+01  5.463624031472E-01  1.977903940415E+01  0.000000000000E+00 -3.093025981338E+00 -1.387134094509E+02 -3.529434954366E-01 -2.974592943977E+01 -2.207417748998E-01 -4.023109567043E+01      177
 Si  1.131818479196E+01  3.470009468628E+00  1.888691841848E+01  0.000000000000E+00 -1.766390344596E+00  2.244388153020E+00  1.914054240581E+01  1.118102106398E+01  1.147017163771E+01 -5.444692640372E-01      178
 Si  8.359172644232E+00  3.811589151571E+00  1.976035812339E+01  0.000000000000E+00  1.076538126791E+01  4.060756719520E+00 -2.691637656301E+01  2.110694882729E+01 -1.138636441923E+01  4.911606314913E+00      179
 O   1.218196809090E+01  2.087924813766E+00  1.867860315846E+01  0.000000000000E+00 -3.850391137576E+00 -3.294061100628E+00  3.542989741080E+01 -3.562358031814E+01  2.310696769244E+01 -1.238409851767E+00      180
 O   1.172241725188E+01  4.566752422993E-01  2.132552511140E+01  0.000000000000E+00 -1.100009560422E+01  8.326738687908E+00 -1.027424820774E+02 -1.015926922092E+01 -5.647646367972E+01  2.651416569522E+00      182
 O   1.194835649071E+01  4.413225453940E+00  1.772085905220E+01  0.000000000000E+00 -2.698675712909E+00  4.210897304221E+00 -2.434616007205E+01  1.695979188122E+01 -1.641549085537E+01 -1.001820088237E+00      184
 O   1.173166047231E+01  4.321709199055E+00  2.020971766196E+01  0.000000000000E+00  1.282922404924E+00 -4.524473239835E+00 -5.242165347411E+01 -2.115790825679E+01 -3.043056069570E+01  4.726029680216E-01      185
 O   9.701568426631E+00  3.184660060769E+00  1.867484619907E+01  0.000000000000E+00 -8.253988759973E+00  2.246583607695E+00  9.582656959877E+00  7.358874108595E+00  4.978183017637E+00 -2.770847555350E+00      187
 O   6.953360615162E+00  4.095667033022E+00  1.899747776684E+01  0.000000000000E+00  4.192229915446E+00 -2.693265636133E+00  1.515769000657E+01 -1.214818482850E+01  5.547940942586E+00  2.451110219752E+00      188
 Ca  1.153239341574E+01  4.523837529911E+00  2.210831392224E+01  0.000000000000E+00 -2.402189064253E+00  5.627252672720E-01  5.510062532503E+01  2.750078175569E+00  2.874222299071E+01 -9.423120293465E-01      190
 O   1.579674770202E+01  1.926032740213E+01  7.840384205508E+00  0.000000000000E+00 -2.929513727944E+01  1.293813084690E+00 -1.447174504580E+01  5.266780497700E-01 -2.915756413261E+01 -3.571836088895E+01      193
 O   4.689616709327E+00  1.210495164338E+01  1.269528038231E+01  0.000000000000E+00 -1.180304390036E+01 -6.278660969496E+00  1.167101137924E+01 -6.584855832684E+00  4.311253342233E+00 -3.046630130226E+01      194
 Si  1.824313821279E+01  1.713666355521E+00  2.004175572553E+01  0.000000000000E+00 -9.695000118210E+00  7.624256984099E+00  4.697378719881E+01 -8.194596534552E+00  4.275819464032E+01 -3.428494875866E+00      196
 Si  1.691180761593E+01  4.253984522041E+00  1.887729143516E+01  0.000000000000E+00  5.308389319307E+01  8.770360603002E-01  1.595045244217E+01  1.192787834586E+00  1.428970803442E+01  1.325179312502E+01      197
 O   1.986509655508E+01  1.605154748980E+00  2.049610004005E+01  0.000000000000E+00 -3.043434631132E+00  3.063925034655E+01  1.218229278975E+00  8.971556589765E+00  1.180724245382E+00 -9.685443766975E+00      202
 O   1.788391686377E+01  3.215396058018E+00  1.975916917750E+01  0.000000000000E+00 -9.359344165011E+00  4.413695310774E+00  7.886491396361E+00  2.080141166854E+01  7.138020592486E+00 -2.201184384798E+00      205
 O   1.589319385346E+01  5.150303646492E+00  1.967325033926E+01  0.000000000000E+00 -2.329810670399E+01  4.361314423463E+00  1.728575971342E+01  1.665945084995E+01  1.396444030814E+01 -7.549918853334E+00      206
 Ca  1.429783091729E+01  5.695714585188E+00  1.818577868943E+01  0.000000000000E+00 -1.701042867687E+00 -2.236779862658E+00 -3.437845930897E+00 -7.141787558152E+00 -2.702866931303E+00 -6.776310845724E-01      209
 O   2.296576042240E+01  1.904826007719E+01  1.486115337669E+01  0.000000000000E+00  4.856621896996E+00 -3.424087154575E+01  1.624998292044E+01 -2.671419025836E+01  2.511199535860E+01  4.028179136640E+00      210
 O   1.510650610687E+01  1.818836044773E+01  5.013537277166E+00  0.000000000000E+00 -1.258231950197E+01  2.492778271011E+00 -1.086409410221E+00  6.871227795017E-01 -3.273507203148E+00 -1.514921853878E+01      212
 Si  1.362668164371E+01  3.483219462956E+00  1.470997850008E+01  0.000000000000E+00 -1.088808344925E+01 -4.789798197075E+00 -1.300645329900E+01 -1.662695187511E+01 -1.204861029663E+01 -2.761157699139E+00      213
 Si  1.155648810603E+01  5.041496230390E+00  1.619625943217E+01  0.000000000000E+00 -1.394102165986E+01 -1.333727559466E+01 -2.761771077018E+00 -4.284719570895E+01 -1.970601590868E+00 -6.081744514522E+00      214
 Si  9.293914055633E+00  6.057259864000E+00  1.462668841807E+01  0.000000000000E+00  1.160404323072E+01  6.777554356941E+00 -5.563245852469E+01  1.636601005096E+01 -3.534930624442E+01  7.562874468260E+00      215
 O   1.210618730414E+01  3.787792936764E+00  1.520134961415E+01  0.000000000000E+00 -3.044435745882E+01  7.830352761221E+00  1.236413960637E+01  3.124760495534E+01  9.846664521803E+00 -9.590478674861E+00      216
 O   1.445230788446E+01  3.486724068505E+00  1.604412195441E+01  0.000000000000E+00  2.781028335706E+01  6.902045264257E+00  3.033499263425E+01  2.882460436799E+01  2.732531293821E+01  6.874443493819E+00      217
 O   1.394600597312E+01  4.581308841529E+00  1.359126753716E+01  0.000000000000E+00  4.864540663202E+00 -1.051226039052E+00  2.143658050363E+00 -3.118649022147E+00  2.199608527530E+00  1.598017611154E+00      218
 O   1.370168552646E+01  1.826713798047E+00  1.461208976808E+01  0.000000000000E+00  5.742782979619E-01  5.673545340991E+00 -1.993817522042E+01 -2.004742432295E+00 -1.869592995784E+01  9.396488953358E-01      219
 O   1.206245747168E+01  6.525721368205E+00  1.614667966722E+01  0.000000000000E+00  2.216799353004E+01  1.145732797790E+01  1.090668809394E+00  2.834901986510E+01  8.147895666570E-01  1.199275930373E+01      220
 O   9.887757256019E+00  5.345865082396E+00  1.591236762285E+01  0.000000000000E+00  1.239784913680E+01 -1.056958969742E+01  1.866753057757E+01 -3.146117500083E+01  1.159978296726E+01  6.702958727761E+00      222
 O   1.065837528309E+01  6.600805773863E+00  1.374779295583E+01  0.000000000000E+00 -1.757423450185E+01 -1.054960820105E+01  3.366250240954E+01 -2.197214011166E+01  2.609783147021E+01 -1.088384537886E+01      223
 O   2.102083117753E+01  2.049907735125E+01  1.307303748883E+01  0.000000000000E+00  3.367282393103E+01 -7.427891147360E+00 -1.859425268395E+01 -4.737047320154E+00 -2.989868627514E+01  3.283703753518E+01      224
 Ca  1.591770063264E+01  8.059469277172E+00  6.321865511013E+00  0.000000000000E+00 -4.619119300724E+00 -3.418647671897E+00  3.945971960220E+00 -2.681594788442E+00  9.935485064993E+00 -2.338758024852E+00      225
 Ca  1.647419966494E+01  4.697195943989E+00  1.570476853933E+01  0.000000000000E+00  3.578590106154E+00 -3.194843047744E+00 -2.027475709490E+00 -1.068174953368E+01 -2.126808782332E+00  1.020343280627E+00      226
 Si  2.136386849861E+01  2.518736274922E+00  2.031621378158E+01  0.000000000000E+00 -1.583061279727E+00  1.616423698389E+00  8.138091951683E+01 -1.281125740976E+00  8.557752352606E+01  3.688997565280E+00      228
 Si  2.309518183916E+01  4.504665832241E+00  2.200446442497E+01  0.000000000000E+00 -6.534148611643E+01  1.397681181548E-01 -5.402293378831E+01  4.178446440339E+00 -5.670074286879E+01 -1.285545807964E+01      229
 O   2.237265871101E+01  1.207967281280E+00  2.042763870263E+01  0.000000000000E+00  7.502437386209E+00  3.247304258071E+01  5.234906346244E+00 -9.210928488122E+00  5.733348566300E+00 -5.407996763284E-01      230
 O   2.169233509112E+01  3.600778942049E+00  2.164888603598E+01  0.000000000000E+00 -2.717839644986E+01 -2.463194280227E+00 -3.335852992279E+01 -2.217752231885E+01 -3.342548009305E+01 -4.275168168588E+00      236
 O   2.299445751647E+01  4.212271202905E+00  2.369156899270E+01  0.000000000000E+00  5.496804944009E+01  4.778772790533E-01 -5.114571918650E+00  4.166831855108E+00 -4.964078433749E+00  1.001343267835E+01      237
 H   1.458359137963E+01  1.738273678251E+01  5.185756774580E+00  0.000000000000E+00 -5.548560449530E-01  3.242565490448E+00  5.478594794384E-01  9.673480171447E-01  1.540712210174E+00 -6.613540060560E-01      243
 H   1.934326006100E+01  1.769817911629E+01  6.409121090747E+00  0.000000000000E+00  1.055991201092E+01 -2.474881841660E+00  1.747107659509E+00 -8.962400766919E-01  5.272916104089E+00  9.661826064076E+00      247
 H   1.313411659183E+01  8.440113589393E+00  5.048537736345E+00  0.000000000000E+00 -3.256259199394E+00 -5.502286570947E+00  6.057776094922E+00 -3.291247338723E+00  1.575971928369E+01 -2.092504457931E+00      248
 H   6.001386064132E+00  1.023157543595E+01  1.025797922652E+01  0.000000000000E+00  3.264309633722E+01  5.292872377212E+01  6.551051772951E+00  5.306531260403E+01  3.832664304286E+00  5.565219418786E+01      249