     8448
Lattice="     49.70      0.00      0.00      0.00     49.70      0.00      0.00      0.00     49.70" pbc="T T T" config_type=md Properties=species:S:1:pos:R:3:charge:R:1:forces:R:3:id:I:1
 Si  1.098454679832E+01  1.763055060688E+01  1.689281139455E+01  0.000000000000E+00 -1.946707036234E+01  3.177266578143E+01 -1.019142867113E+01  3.044315872577E+01 -6.626974194232E+00 -3.124527351856E+01        1
 Si  1.267521216975E+01  2.032090918410E+01  1.688552186624E+01  0.000000000000E+00 -3.445400582875E+01  3.927737333917E+01 -2.368628275522E+01  3.263726737610E+01 -1.778024166582E+01 -5.523668669982E+01        2
 Si  1.081852221182E+01  2.257376906526E+01  1.788405512630E+01  0.000000000000E+00 -7.757076658907E+00 -2.877343155479E-01 -2.863956673677E+01 -2.279573404915E-01 -1.732480618576E+01 -1.618580187675E+01        3
 O   1.153573059263E+01  1.925164383822E+01  1.668341921847E+01  0.000000000000E+00 -6.691267429456E+00 -1.619336503016E+01  2.167754745164E+01 -1.403312359330E+01  1.498891468448E+01 -1.116686076740E+01        4
 O   9.763450788025E+00  1.781093957604E+01  1.572072935289E+01  0.000000000000E+00 -1.778523192425E-01  1.576165583511E+00  1.818478444412E+01  1.391194015786E+00  1.129376659476E+01 -3.244464462681E-01        5
 O   1.207751928694E+01  1.665235080020E+01  1.642913512045E+01  0.000000000000E+00  8.235870900491E+00 -2.624458881625E+01 -1.227776048469E+01 -2.589279441781E+01 -9.025727037191E+00  1.135552824398E+01        6
 O   1.016438945522E+01  1.757188517505E+01  1.836530969116E+01  0.000000000000E+00  6.194282272721E+00 -1.779491128553E+01  7.198294286698E-01 -1.859840611464E+01  3.983938619806E-01  1.070848547447E+01        7
 O   1.273012034953E+01  2.099376531769E+01  1.537603058202E+01  0.000000000000E+00  1.398272523086E+01 -1.054346483053E+01  1.038237384040E+00 -7.722132510367E+00  8.595772998565E-01  2.305948757266E+01        8
 O   1.395600397798E+01  2.005483705848E+01  1.775112168215E+01  0.000000000000E+00  3.128374206717E+01 -3.870210220234E+01  1.100588962990E+01 -3.425636037556E+01  8.652875136927E+00  4.495487037169E+01        9
 O   1.221879702033E+01  2.171787918268E+01  1.766688640571E+01  0.000000000000E+00 -1.690081405071E+01 -7.655187023669E+00  1.461642630784E+01 -6.227280224928E+00  1.010903348313E+01 -3.003976881124E+01       11
 O   1.931253412510E+01  1.810560284626E+01  2.142842958927E+01  0.000000000000E+00 -7.019900316385E+01  2.650415474942E+01  8.704626418360E+00  3.136832386604E+01  7.845110349803E+00 -6.581193660316E+01       13
 Ca  4.056742757971E+00  1.580876367073E+01  1.623432268360E+01  0.000000000000E+00  1.164577208281E-01  6.034917597559E+00 -3.639688382282E+00  6.197372652811E+00 -9.095100407859E-01  4.538253214567E-01       14
 Ca  2.084022163307E+01  1.434868129966E+01  1.869800328291E+01  0.000000000000E+00 -1.962964402946E+01  1.851269258884E+01 -2.530545013946E+00  2.412419507915E+01 -2.820467947574E+00 -1.351518765796E+01       15
 O   7.549123168413E+00  3.921240809764E+00  1.584632477009E+01  0.000000000000E+00  1.891786949885E+01 -4.218770737926E-01  1.319359832775E+01 -4.812031280873E+00  6.285375331871E+00  1.006382196855E+01       16
 O   9.276533583602E+00  1.612338787840E+01  2.092408141893E+01  0.000000000000E+00  3.383695723472E+01  2.045891942100E+00  5.969790432736E+00  2.655050532411E+00  2.646661534505E+00  5.881144947124E+01       18
 Si  2.039905272191E+01  1.966492989557E+01  1.825451192135E+01  0.000000000000E+00  5.227334346672E+00 -4.571569777663E+01 -4.541230394951E+00 -4.243685355037E+01 -5.074734325851E+00  5.039212598221E+00       19
 Si  1.839406011572E+01  2.175686849501E+01  1.898758342874E+01  0.000000000000E+00 -4.421813818190E+01 -2.351351410872E+01  2.341979126199E+01 -2.052063746878E+01  2.268772379526E+01 -5.230211337058E+01       20
 O   1.897374892413E+01  2.016258736122E+01  1.889108447465E+01  0.000000000000E+00 -2.467417367560E+00  2.089571397133E+01 -5.296686969325E+00  1.957797829805E+01 -5.319864448256E+00 -2.622018370167E+00       22
 O   2.150811509012E+01  2.082141636470E+01  1.809218338511E+01  0.000000000000E+00 -1.540822195469E+01 -7.508101076862E+00 -3.180661661445E+00 -6.523952990383E+00 -3.781192994839E+00 -1.491627710815E+01       23
 O   2.024830322055E+01  1.911692569579E+01  1.665565125494E+01  0.000000000000E+00  2.191319269446E+00  1.300770230977E+01  3.300561761486E+01  1.133298087502E+01  4.012498480052E+01  2.068878917580E+00       24
 O   2.096391019185E+01  1.843904421299E+01  1.953890849173E+01  0.000000000000E+00 -1.054924336040E+00  3.180474430349E+01 -5.044710464196E+01  3.370185468241E+01 -5.412628712604E+01 -9.278706260229E-01       25
 O   1.870070795935E+01  2.220862677586E+01  2.056298601147E+01  0.000000000000E+00  4.420215160624E+00  2.914633807111E+00 -1.734563370949E+01  2.698661867259E+00 -1.577473379547E+01  5.249368579236E+00       26
 O   2.137770057734E+01  1.663245083807E+01  2.156994586141E+01  0.000000000000E+00  1.194221910690E+01 -7.518302563708E+00  6.014621064082E+00 -9.750179384127E+00  5.961014877844E+00  9.291381525078E+00       27
 O   1.912353767416E+01  2.263766659320E+01  1.787402489641E+01  0.000000000000E+00  2.124372261979E+01  2.981980622662E+01 -8.565764318134E+00  2.354482767499E+01 -9.164568002740E+00  2.514745535367E+01       29
 Ca  5.349417816461E+00  9.630298919166E+00  1.469453675591E+01  0.000000000000E+00 -1.283322905041E+00  1.558960982415E+01  7.534526935266E+00  2.378764112039E+01  2.742878751174E+00 -2.310304337666E+00       32
 Si  1.398689996195E+01  1.990954400567E+01  1.225497668140E+01  0.000000000000E+00  5.862337682813E+00 -1.151713783726E+01  4.023487357998E+01 -7.089175703469E+00  4.592102999257E+01  8.344698996171E+00       37
 Si  1.217827952925E+01  2.154395675507E+01  1.394961683271E+01  0.000000000000E+00 -6.432701281047E+00  5.016099947404E+01  2.917830115480E+01  3.247902558306E+01  2.547320918655E+01 -1.137975507003E+01       38
 O   1.247222105624E+01  2.047117156493E+01  1.285263596415E+01  0.000000000000E+00  9.294228944263E+00 -6.057732591458E+01 -3.534623187387E+01 -3.803291449112E+01 -3.430004698378E+01  1.525500184962E+01       40
 O   1.422870280486E+01  1.837961415864E+01  1.321182898101E+01  0.000000000000E+00 -9.380991808700E+00 -4.257236568400E+00  1.789533488710E+01 -3.060231895401E+00  1.927268374938E+01 -1.211769001250E+01       41
 O   1.533244303419E+01  2.076793526899E+01  1.254232239126E+01  0.000000000000E+00 -1.916393438884E+01 -4.645891571747E+01 -1.057431926573E+01 -2.805780600381E+01 -1.292664489952E+01 -2.595772558875E+01       42
 O   1.370040325989E+01  1.899742217295E+01  1.105927503882E+01  0.000000000000E+00 -1.309211628985E+01 -9.026776671778E+00 -3.544077797094E+01 -5.254902745139E+00 -4.390459124504E+01 -1.815395179089E+01       43
 O   1.307312412580E+01  2.275529285031E+01  1.345403984903E+01  0.000000000000E+00  1.446065899628E+01  3.275362492458E+01 -2.514142710557E-01  1.936554180315E+01 -2.442961377691E-01  2.517045865261E+01       44
 O   1.056025663148E+01  2.187922801040E+01  1.398706564773E+01  0.000000000000E+00  2.535733083082E+00 -1.219304805843E+00  5.899107733999E-01 -7.794834605594E-01  4.453835646211E-01  5.253649057439E+00       46
 O   7.985072692028E+00  2.160908159750E+01  1.480015435181E+01  0.000000000000E+00  4.074458673203E+00 -2.878761733829E-01 -2.268133791954E+00 -1.971676482895E-01 -1.223717859522E+00  1.102623774769E+01       47
 O   1.617397866115E+01  1.558602739305E+01  1.115345647872E+01  0.000000000000E+00  3.936390120048E+01  3.835646456999E+00  3.354606985163E+00  2.744812051657E+00  4.864621285616E+00  3.793295732988E+01       48
 Ca  6.433513201587E+00  2.084263928364E+01  1.354714353983E+01  0.000000000000E+00 -2.552460840235E+00 -7.210452981557E+00 -3.327194123721E+00 -4.686596558094E+00 -1.580078284125E+00 -8.269202053633E+00       49
 Si  2.043907143298E+01  2.014791495095E+01  2.340537665455E+01  0.000000000000E+00  7.831806296606E+00 -3.692943488146E+01 -3.006633830980E+01 -4.290008842824E+01 -2.625584905179E+01  7.720241484243E+00       51
 Si  1.960702328330E+01  2.230504179593E+01  2.193085645465E+01  0.000000000000E+00 -8.628990363465E+00  5.087553895586E+00  3.862353492559E+00  5.002206012892E+00  3.453091538559E+00 -9.816379974298E+00       52
 O   1.907289234188E+01  2.089505268911E+01  2.285618911746E+01  0.000000000000E+00  3.151311120849E+01  4.267545777153E+01 -2.421151871799E+01  4.668082670155E+01 -2.020387946427E+01  3.452376846135E+01       54
 O   1.984117564481E+01  1.869553972971E+01  2.412291926948E+01  0.000000000000E+00  6.292039843557E+00  6.664204943154E-01 -5.249060672888E+00  8.598846578549E-01 -4.317368624320E+00  5.928735422838E+00       55
 O   2.161757605247E+01  1.958598304586E+01  2.237048030318E+01  0.000000000000E+00 -9.299556902642E+00  9.930397310465E+00  1.824071055339E+01  1.134218062562E+01  1.762679845469E+01 -8.425596069932E+00       56
 O   2.111428442090E+01  2.090789836700E+01  2.462588723970E+01  0.000000000000E+00  1.250705655400E+01  1.372319007916E+01  1.267715374758E+01  1.616354382093E+01  1.086941669424E+01  1.238480367549E+01       57
 O   1.673171297936E+01  2.199131795298E+01  1.883405391541E+01  0.000000000000E+00  2.839548450443E+01 -3.394699203524E+00 -4.490935498993E+00 -2.907326789711E+00 -3.989637287621E+00  3.732158978200E+01       58
 O   1.572294415189E+01  1.325580827959E+01  1.241220715410E+01  0.000000000000E+00  9.647533176274E+00  1.284740474729E+00 -4.688011271289E+01  1.202979446840E+00 -5.938455464590E+01  8.133708860137E+00       59
 H   3.715907785391E+00  5.421135140233E+00  1.576792737726E+01  0.000000000000E+00 -5.919643963512E+00 -8.438156994236E+00 -1.933778565155E+00 -2.454324477093E+01 -5.495912068148E-01 -8.617098188345E+00       70
 H   1.445430753844E+01  1.920513934307E+01  1.790338814583E+01  0.000000000000E+00 -7.562432180230E+00  1.620889686730E+01 -8.721058461309E-01  1.511023517440E+01 -7.040950016483E-01 -1.004804715878E+01       73
 H   1.414830259664E+01  7.825322407225E+00  1.617224637295E+01  0.000000000000E+00  6.960768579861E+00  1.098932673929E+01 -2.621774929611E+01  2.271115364352E+01 -2.293661881535E+01  3.849950053544E+00       83
 Si  2.554543148866E+00  2.133163811843E+01  2.021714827005E+01  0.000000000000E+00  2.525994641617E+00 -9.374565190437E+00  4.279781267758E+01 -8.884782939317E+00  5.116084297530E+00  3.371530809891E-01       89
 Si  2.684501898019E+00  2.156003463341E+01  1.702477792953E+01  0.000000000000E+00  1.834371970726E+00 -1.898061581207E+02  3.995526282009E+01 -1.498795223017E+02  7.525151293157E+00  9.587006788160E+01       90
 O   2.472218923492E+00  2.167884561633E+01  1.866151604707E+01  0.000000000000E+00  8.591090521108E+00 -1.584892699038E+00 -2.675957097487E+01 -1.364302373818E+00 -2.958290649995E+00  1.268865522046E+01       92
 O   2.826529643824E+00  1.979932979245E+01  2.060644371017E+01  0.000000000000E+00  5.850618039126E-01 -1.850890639655E+01 -1.323745876989E+01 -1.926341658003E+01 -9.175717248469E-01 -8.881016241987E+00       95
 O   2.028873277906E+00  2.004744239610E+01  1.644016904659E+01  0.000000000000E+00  3.899954323717E+00  2.926748092878E+01  1.034688960556E+01  2.400118302026E+01  3.439842034459E-01  5.312236026110E+00       96
 O   4.345425330649E+00  2.123745240536E+01  1.688379159702E+01  0.000000000000E+00 -4.479989564144E+00  2.480047240817E+00  1.212776623644E+01  1.971639534042E+00  3.113394510218E+00 -2.220713342389E+01       97
 O   1.172379000354E+01  1.305115209348E+01  2.158956972895E+01  0.000000000000E+00  8.277792019167E+00  2.535087493456E+01  7.192781330707E-01  4.193610481047E+01  3.905898029526E-01  9.214999808737E+00       98
 O   4.066642870300E+00  1.201615991797E+01  1.970331338315E+01  0.000000000000E+00  7.171180405999E-01  9.776975877966E+00  1.354939380709E+01  1.603164579850E+01  2.796511665375E+00  2.118948068649E+00      101
 Ca  2.132697640934E+01  2.274352146990E+01  1.916806185849E+01  0.000000000000E+00 -2.773382401189E+00  2.057755856248E+01  2.149603710035E+00  1.734260527528E+01  2.391715341477E+00 -2.957591407944E+00      102
 O   1.599431301686E+01  4.103897101474E+00  1.155432553376E+01  0.000000000000E+00  3.987941288479E+00  1.143979048229E+01 -3.915562643159E+00  3.373132660805E+01 -5.420198207921E+00  9.078730819121E-01      105
 Si  5.810817904858E+00  1.601268977880E+01  1.891989788890E+01  0.000000000000E+00 -1.320603014340E+01 -2.129089763031E+01  3.982880323536E+01 -2.515639874956E+01  1.223251437868E+01 -3.639144563778E+01      107
 Si  8.063214638193E+00  1.707479113651E+01  2.086188473803E+01  0.000000000000E+00 -2.309274364271E+01  5.484128808262E+01  1.392747333351E+01  6.700478042267E+01  5.383032658170E+00 -4.890156000566E+01      108
 Si  7.238419413317E+00  1.984097290422E+01  2.002165904024E+01  0.000000000000E+00  2.836536313444E+01  1.714108847042E+01 -2.086334552691E+01  1.729718752150E+01 -7.542713867277E+00  7.775128370338E+01      109
 O   7.154077394687E+00  1.659323716873E+01  1.965136150592E+01  0.000000000000E+00 -9.163201480392E+00 -1.067612956788E+01 -1.638689153111E+01 -1.264373428097E+01 -5.965647226865E+00 -2.125321924835E+01      110
 O   6.047515044627E+00  1.567870709450E+01  1.743340517637E+01  0.000000000000E+00  3.354315910643E+00  2.343342643132E+00 -3.785583658080E+01  2.605600163238E+00 -1.313190044821E+01  8.696354829596E+00      111
 O   4.497310938112E+00  1.711420760311E+01  1.894627950221E+01  0.000000000000E+00  6.822078567848E+00 -1.439596569800E+01  1.474376948771E+01 -1.593705044042E+01  3.485402060684E+00  2.565955689883E+01      112
 O   5.293278241314E+00  1.441712819213E+01  1.959109421545E+01  0.000000000000E+00  6.518469126112E+00  2.094661192794E+01  5.348507716891E+00  2.846385509694E+01  1.445102514947E+00  1.775414038773E+01      113
 O   7.257097461663E+00  1.689713980054E+01  2.227377963820E+01  0.000000000000E+00 -2.823609128144E-01 -3.252616744895E+00  7.706495771684E+00 -4.287593609245E+00  2.510880138505E+00 -6.574380243944E-01      114
 O   1.299981834712E+01  1.283625093999E+01  3.543010485340E+01  0.000000000000E+00 -3.104605207906E-01  1.485213994813E+00 -2.099864616683E+01  4.099428081609E+00 -7.704707249208E+00 -3.065542183296E-01      115
 O   8.266761531098E+00  1.868846851208E+01  2.062797877102E+01  0.000000000000E+00 -6.231570863840E-01 -8.541823438644E+00  3.265675486015E-01 -9.428303471964E+00  1.308735130112E-01 -1.408756203159E+00      117
 O   5.715303466269E+00  1.973393111423E+01  2.028479789013E+01  0.000000000000E+00 -1.044369979617E+01 -6.792346460366E+00 -1.070204033011E+01 -6.981952777210E+00 -3.015332394541E+00 -3.606024659438E+01      118
 O   7.291537844246E+00  9.696339663065E+00  2.180590797042E+01  0.000000000000E+00 -7.613515701758E-01  1.352591626091E+00 -3.653425029168E+01  3.041816762304E+00 -1.221645386077E+01 -1.012450814235E+00      119
 Ca  2.325467892040E+01  1.998079210225E+01  2.081481798760E+01  0.000000000000E+00 -2.111660248918E+01 -1.686592711489E+01  6.000414989209E+00 -1.756993422943E+01  6.703768634745E+00 -1.814372263261E+01      120
 Ca  2.683839907845E+00  1.244306259562E+01  1.811627103860E+01  0.000000000000E+00 -2.157865610614E+00 -6.615519530529E+00 -9.290406762354E+00 -9.631756165754E+00 -1.360878932852E+00 -4.750812028809E+00      121
 Si  1.528840743263E+00  1.692236288957E+01  1.354209454352E+01  0.000000000000E+00 -2.431858310558E+02  5.820352464250E+00  1.295183568337E+01  4.657727993534E+00 -1.018860891827E+02 -4.741861203606E+01      125
 Si  2.595492328646E+00  1.926145034425E+01  1.506141439992E+01  0.000000000000E+00 -1.521252557183E+00  2.897750639129E+00  1.628278993407E+01  2.265884573774E+00  2.021886838906E+00 -1.805803495075E+01      126
 Si  2.986902909345E+00  2.117502692242E+01  1.266137338293E+01  0.000000000000E+00 -1.671286289110E-01  2.935284952608E+01 -1.647707245538E+01  1.755121205107E+01 -5.630984329341E+00  1.183984897503E+01      127
 O   1.312385879735E+00  1.819046255770E+01  1.480658000566E+01  0.000000000000E+00  2.181336511477E+01 -1.509106698564E+00 -3.551936007204E+01 -1.228374979388E+00  4.122316090064E+00 -1.182386148814E+01      128
 O   2.601990142574E+00  1.725466359990E+01  1.243077130467E+01  0.000000000000E+00  1.791767487980E+01 -3.071184647441E+00 -2.243096143103E+00 -2.212572488924E+00  1.365523817457E+00  2.252745923431E+00      129
 O   2.061419433284E+00  1.578766742120E+01  1.471620067147E+01  0.000000000000E+00  7.192376866196E+00  1.262356018597E+01 -1.009143319663E+00  1.176683292907E+01  4.504763190822E+00 -7.754120251833E+00      131
 O   3.707145304068E+00  1.811275049640E+01  1.537936932404E+01  0.000000000000E+00  3.649344005702E+00  2.143448618843E+01  1.672153876181E+00  1.819982445120E+01  4.157340492124E-01  1.782675439003E+01      132
 O   2.768828290054E+00  4.313211631463E+00  9.769767756871E+00  0.000000000000E+00  4.152354057173E+00  1.830203089600E+01  5.763121490818E+01  4.252687908027E+01  1.688718810258E+01  2.665911387958E+00      133
 O   2.733982809249E+00  2.066650666847E+01  1.411306052208E+01  0.000000000000E+00  9.763614829329E-01 -5.586315057168E+01  4.366798898788E+01 -3.814868364643E+01  8.785652246192E+00 -4.845429781113E+00      134
 O   1.512618451698E+00  2.102660422005E+01  1.183591216697E+01  0.000000000000E+00  2.925549890670E+01  1.363773375150E+01 -6.944544318208E+00  7.676704100670E+00  1.453759260592E+00  4.106355188687E+01      135
 O   8.024064010163E+00  1.517461587974E+01  1.336267986499E+01  0.000000000000E+00  1.331324923171E+01 -2.742097109308E+01  7.136383621535E+00 -2.414675015222E+01  4.285278069880E+00  2.517719735866E+01      136
 Si  8.671604443226E+00  1.426427617708E+01  2.543814111564E+01  0.000000000000E+00 -1.097568163909E+01 -5.265975118424E+01 -7.637646146946E+01 -9.391056125876E+01 -2.603596149678E+01 -1.805434682321E+01      139
 Si  7.914160488275E+00  1.680796239087E+01  2.378673555430E+01  0.000000000000E+00  2.185732129052E+01  1.406689121701E+01 -1.323178082914E+00  1.990755415016E+01 -4.402387910204E-01  4.642021535454E+01      140
 O   8.031571543595E+00  1.517387355156E+01  2.419932811424E+01  0.000000000000E+00 -2.330136815148E+00  3.453531689358E+00  2.905401403007E+01  5.507700207183E+00  9.642804593975E+00 -4.402276839468E+00      142
 O   8.101916254745E+00  1.254492596629E+01  2.531151329851E+01  0.000000000000E+00 -1.687792142086E+01  1.582914335658E+01  4.605510029396E+01  3.193797824323E+01  1.474169328736E+01 -2.613360445013E+01      143
 O   7.175343530900E+00  1.791975708395E+01  2.474399500492E+01  0.000000000000E+00 -2.076919149942E-01 -5.459112093741E+00 -9.446482891466E+00 -7.538062137003E+00 -2.739321596677E+00 -5.186913558869E-01      148
 O   1.283026469551E+01  1.600028206783E+01  1.297524409358E+00  0.000000000000E+00  1.007157381931E+01  2.407265185309E+01  1.405287091400E+01 -1.200310381515E+00 -2.030803472127E+01  1.255999200331E+01      150
 Ca  4.375724598760E+00  1.176871187700E+01  7.087825350680E+00  0.000000000000E+00 -1.669992251414E+00 -1.337976009892E+00  2.219695856193E+00 -8.058095380895E-01  1.417240265692E+00 -3.753305458690E+00      151
 Ca  1.236581179364E+01  2.208508514099E+01  2.226503928210E+00  0.000000000000E+00 -1.200587775847E+00 -8.991811782724E+00 -1.633335492034E+01 -4.172870404833E+00 -2.814049864261E+00 -2.144225036843E+00      152
 H   6.672806073240E+00  1.858207505152E+01  1.496597832956E+01  0.000000000000E+00 -1.518557306933E+00 -3.795272790542E+01 -4.145326553850E+01 -3.056707616376E+01 -1.848256064186E+01 -4.228797531013E+00      155
 H   1.322465931854E+01  1.256580337765E+01  3.632235597242E+01  0.000000000000E+00 -3.247050725070E-01 -2.465340383927E+00  1.084531706775E+01 -7.126243211590E+00  3.948687236354E+00 -3.085281819796E-01      156
 H   1.607570019043E+01  1.303850948917E+01  1.138423047592E+01  0.000000000000E+00 -1.249895804421E+01  5.586717610747E+00  4.342355768609E+01  4.877895049082E+00  6.131851388990E+01 -1.013752316439E+01      159
 H   1.613228201620E+01  3.220696287762E+00  1.130608853017E+01  0.000000000000E+00  6.972504996316E+00 -8.894114088681E+00 -5.562229169312E+00 -3.139508211062E+01 -7.936559965778E+00  1.341149230076E+00      160
 H   1.541881845609E+01  1.759117751490E+01  1.496005859843E+01  0.000000000000E+00  1.387575804231E+01  1.222849687636E+01  2.545818044994E+01  1.039947608318E+01  2.623887199353E+01  1.583071514664E+01      164
 H   1.903021852683E+01  5.548675356152E+00  5.718112230217E+00  0.000000000000E+00 -8.945904686192E+00 -1.852330163317E+00  2.843046833969E+00 -1.908893759574E+00  9.461829421000E+00 -2.608373666375E+00      168
 H   6.118532656325E+00  2.115261733091E+01  3.234305095466E+01  0.000000000000E+00 -3.336753035254E+00 -3.801728482736E+01  1.181620267203E+01 -5.812968490346E+01  2.235343289782E+00 -1.153561875812E+01      169
 Si  1.170115031436E+01  5.874949299576E-01  1.923746268240E+01  0.000000000000E+00  1.199315850083E+01 -1.809053249931E+02 -6.248717443109E+00 -1.327398794869E+00 -3.800770573589E+00 -1.172228821515E+02      177
 Si  1.074592050529E+01  3.155395043588E+00  1.870303943364E+01  0.000000000000E+00 -6.029083990924E+00  6.166642883353E+00  1.632335864636E+01  3.095393157382E+01  9.378663559763E+00 -1.903524184986E+00      178
 Si  8.127742625490E+00  3.843232480455E+00  1.982107701825E+01  0.000000000000E+00 -1.233411332444E+01 -1.721706926958E+00  1.935325978365E+00 -8.879526746210E+00  7.935911572360E-01 -5.832230070555E+00      179
 O   1.048907506020E+01  1.586152480584E+00  1.857491798995E+01  0.000000000000E+00  2.054837749438E+00  2.560004628299E+01  1.303099334935E+01 -1.910035211022E+01  7.358474875868E+00  2.337672004008E+00      180
 O   1.231334382823E+01  5.025128174896E-01  2.074808969625E+01  0.000000000000E+00 -1.123841897155E+01  1.588499952635E+01 -1.234640583235E+01  2.483306784807E+01 -7.327206614305E+00 -8.735712312708E+00      182
 O   1.134341306918E+01  3.879750781729E+00  1.743770559401E+01  0.000000000000E+00  1.109417714624E+01  5.085866307974E+00 -6.002153745152E+01  2.261821857420E+01 -3.904464888968E+01  3.795504591307E+00      184
 O   1.177280155094E+01  3.552162646973E+00  1.989413863360E+01  0.000000000000E+00 -1.090342735298E+01 -3.199355660243E-01 -2.043085927727E+01 -2.604986579798E+00 -1.209041799780E+01 -3.351232617550E+00      185
 O   9.066811050483E+00  3.680547704541E+00  1.846431102460E+01  0.000000000000E+00  9.135688850065E+00 -1.608700735588E+00  2.670116507596E+01 -7.351270317470E+00  1.311147858422E+01  3.744277822049E+00      187
 O   6.609827039745E+00  3.972516630003E+00  1.912746335279E+01  0.000000000000E+00  9.050825635253E+00  3.858441488702E+00  2.986453406497E+01  1.695395617855E+01  1.032020823416E+01  5.587355732335E+00      188
 Ca  1.337674332861E+01  2.475358290002E+00  2.080422491143E+01  0.000000000000E+00  7.829906870638E+00 -7.334397347143E+00  1.846871094716E+01  3.057579654792E+00  1.187504975563E+01  3.179450455014E+00      190
 O   1.317855935208E+01  1.783664369195E+01  7.978672192231E+00  0.000000000000E+00  1.459458309700E+01 -2.107712580409E+01 -4.101167134663E+01 -9.428201877528E+00 -6.773993616328E+01  1.975317419600E+01      193
 O   6.110075448834E+00  1.124873142176E+01  1.310030802106E+01  0.000000000000E+00 -4.836390406649E+00  1.611569721848E+00  3.493720572188E+00  1.876839170752E+00  1.629495753756E+00 -8.903860057169E+00      194
 Si  1.833981468997E+01  1.743118442211E+00  1.985392660084E+01  0.000000000000E+00 -1.459801243641E+01  4.755183691174E+00 -4.532934907998E+01 -5.477607649242E+00 -4.187241540970E+01 -2.804349905263E+00      196
 Si  1.600568784695E+01  3.833633678003E+00  1.981356913311E+01  0.000000000000E+00  2.176246601995E+01 -4.134570346538E+00 -9.415352198541E+00 -2.108118851994E+01 -7.605857745597E+00  5.213866900164E+00      197
 O   1.950454720529E+01  2.784093343757E+00  2.017183650637E+01  0.000000000000E+00  6.923835318114E+01  1.841864813767E-01 -3.593411922234E-01 -3.761321557712E+00 -3.474540974152E-01  1.016971562843E+01      202
 O   1.704134825877E+01  2.499652690666E+00  1.927018479579E+01  0.000000000000E+00 -1.116083338439E+01  1.022626472065E+01  3.262267462910E+01  2.972894925687E+01  2.884945657649E+01 -2.977831156208E+00      205
 O   1.600577969364E+01  4.049087127866E+00  2.149433874159E+01  0.000000000000E+00  2.759790392319E+00 -1.821797373892E+00 -7.591662217380E+01 -9.670903252113E+00 -5.653138457558E+01  6.981622868137E-01      206
 Ca  1.335347437846E+01  5.266180150951E+00  1.853175844672E+01  0.000000000000E+00 -1.080792419080E+00 -4.698289400131E+00  1.469172090111E+01 -1.653334329254E+01  1.058644915929E+01 -4.262297154542E-01      209
 O   2.241466087748E+01  1.864690189539E+01  1.423052987803E+01  0.000000000000E+00 -2.850409510746E+00 -7.436927807566E+00  4.187880701286E+01 -5.675549963208E+00  6.596375997185E+01 -2.371274176268E+00      210
 O   1.471815821978E+01  1.776947142790E+01  4.107521881113E+00  0.000000000000E+00  3.510958901238E+00  2.712152328970E+00  9.353334715811E+00  7.314484803565E-01  3.283947115758E+01  4.238837696162E+00      212
 Si  1.409312088364E+01  3.444205727328E+00  1.481251559810E+01  0.000000000000E+00 -4.455296116848E+01  5.229939731337E+00 -5.229816003128E+01  2.524991831535E+01 -4.975821199522E+01 -1.096183906545E+01      213
 Si  1.160060644791E+01  4.688609342941E+00  1.591810034629E+01  0.000000000000E+00  6.094770355293E+00 -2.310534375314E+00  2.395865371137E+01 -7.844398061264E+00  1.746030661204E+01  2.463319254835E+00      214
 Si  1.037037245668E+01  5.967088945109E+00  1.353333930319E+01  0.000000000000E+00 -2.259734219828E+01  7.053404539432E+00  3.936094883895E+00  1.599709971695E+01  3.016163938284E+00 -1.300245978468E+01      215
 O   1.239359613992E+01  3.683051873053E+00  1.491690554898E+01  0.000000000000E+00 -1.132973043215E+01  6.311057583450E-01  1.541189206220E+01  3.870049042458E+00  1.280485187386E+01 -3.388607796908E+00      216
 O   1.464100487130E+01  4.113340690984E+00  1.605882629824E+01  0.000000000000E+00  3.739728156078E+01  7.896749405696E+00  7.114504442215E+01  3.075147522677E+01  6.486370315046E+01  1.050968182345E+01      217
 O   1.432084598505E+01  4.157546378520E+00  1.342447024482E+01  0.000000000000E+00  1.316324834946E+01  1.001763394109E+00 -8.249111906497E+00  6.581963546303E+00 -8.799919771280E+00  3.925419461232E+00      218
 O   1.448743651539E+01  1.944839955257E+00  1.475015533707E+01  0.000000000000E+00  9.566267102248E+00 -2.389249782980E+00 -2.469943452295E+00 -4.752060366033E+01 -2.425950652316E+00 -8.479601801060E-01      219
 O   1.233796655420E+01  6.005638197547E+00  1.678056647892E+01  0.000000000000E+00 -1.704698645994E+00 -3.024737946222E-01 -2.181647797032E+01 -8.451527467741E-01 -1.604063699913E+01 -8.297804389986E-01      220
 O   1.030922991885E+01  5.359868291325E+00  1.517313860011E+01  0.000000000000E+00  1.742413780564E-02 -2.957781131267E+00 -9.580066318081E+00 -8.373120497411E+00 -6.509075604846E+00  9.058977679540E-03      222
 O   1.177441192285E+01  5.934567038661E+00  1.285431018242E+01  0.000000000000E+00 -1.801257323463E+01  5.630304922145E+00  1.089052832204E+01  1.219527649100E+01  9.975608546979E+00 -9.078739906508E+00      223
 O   2.104084094845E+01  2.166593298279E+01  1.263907959045E+01  0.000000000000E+00  1.462133849630E+01  1.602693752887E+01 -9.135706841240E+00  9.349504550740E+00 -1.520861968014E+01  1.505571667766E+01      224
 Ca  1.542396817824E+01  8.277911888917E+00  6.474506449357E+00  0.000000000000E+00  3.038713825398E+00 -2.779472838663E+00  1.123090893859E+00 -2.173943750697E+00  2.675496324491E+00  1.630851737477E+00      225
 Ca  1.707407736901E+01  4.762706504568E+00  1.611982877241E+01  0.000000000000E+00 -6.254276830886E+00  1.752316671050E+00  1.375254854538E+01  6.291763049805E+00  1.456666080020E+01 -1.734702596948E+00      226
 Si  2.130538028775E+01  2.636265634432E+00  2.007453891115E+01  0.000000000000E+00  1.233763042684E-01  1.948688020694E+00  1.548620013951E+01 -9.370950725743E+00  1.643571414740E+01 -1.074432031074E-01      228
 Si  2.290824352030E+01  5.101104422397E+00  2.108493949093E+01  0.000000000000E+00  4.672708106913E+00 -1.222644404477E+01 -1.416921291330E+01 -5.053686643649E+01 -1.539448477188E+01  1.040497581913E+00      229
 O   2.188130097622E+01  1.148187122216E+00  2.075372880724E+01  0.000000000000E+00 -6.446771169746E+01  1.131947945140E+01 -1.881233000998E+01  2.978096248962E+01 -1.983442391656E+01 -2.977934939807E+00      230
 O   2.189588744464E+01  3.616115681815E+00  2.132575737733E+01  0.000000000000E+00  5.761013518610E+00  5.693461204650E+00  4.750648314539E+00  3.267415847424E+01  4.877653765992E+00  8.699172933800E-01      236
 O   2.375938949755E+01  5.646961200634E+00  2.248168946080E+01  0.000000000000E+00 -3.377699067475E+01 -5.650853933725E+00 -3.053363697752E+01 -2.249718721497E+01 -3.226895269552E+01 -8.027872763067E+00      237
 H   1.437863023138E+01  1.768571143516E+01  3.230548325039E+00  0.000000000000E+00 -7.635730331146E+00 -4.135712104969E+00 -3.931122234649E+00 -7.429297988125E-01 -1.950891320750E+01 -9.391946316182E+00      243
 H   1.801834312212E+01  1.909496593723E+01  7.218972873250E+00  0.000000000000E+00  1.023588305902E+01 -2.033265708086E+01  7.305669999059E+00 -7.686889853084E+00  1.823473658806E+01  1.084749230407E+01      247
 H   1.598949952531E+01  9.047693701547E+00  9.313201877549E+00  0.000000000000E+00  1.829803445019E+01  6.739568688555E-01  1.074794163565E+01  6.937344016563E-01  1.845275233383E+01  1.035398329907E+01      248
 H   6.222765305569E+00  1.122261234046E+01  9.502483536625E+00  0.000000000000E+00 -6.046941901977E+00 -2.675260276645E+01  1.661258919397E+00 -2.265213834692E+01  1.087886585370E+00 -1.090551892588E+01      249