     8448
Lattice="     49.70      0.00      0.00      0.00     49.70      0.00      0.00      0.00     49.70" pbc="T T T" config_type=md Properties=species:S:1:pos:R:3:charge:R:1:forces:R:3:id:I:1
 Si  1.064127538049E+01  1.767684499988E+01  1.580848744177E+01  0.000000000000E+00 -1.941610257380E+01  3.269935892928E+01  1.435024132896E+01  2.924319384998E+01  9.659676191057E+00 -3.225322373746E+01        1
 Si  1.199039367561E+01  2.034689142007E+01  1.670993247887E+01  0.000000000000E+00 -9.331704427002E+00 -6.754969767100E+01  2.047730543361E+01 -5.547534823610E+01  1.469371308801E+01 -1.583527462711E+01        2
 Si  1.074720257988E+01  2.264647486443E+01  1.743831070882E+01  0.000000000000E+00 -5.079110691327E+01  2.578505075680E+01  7.840361125660E+00  1.985508691448E+01  4.832001833430E+00 -1.070268767615E+02        3
 O   1.079139622177E+01  1.948033319277E+01  1.596320782304E+01  0.000000000000E+00  1.165596008357E+00 -1.060973044349E+01  7.211769880799E+00 -8.694170183843E+00  4.875277394537E+00  2.104102022048E+00        4
 O   9.034275032309E+00  1.752950720473E+01  1.559358962486E+01  0.000000000000E+00  5.521958683068E+00  1.077751048825E+01 -1.367970631803E+01  9.587267557990E+00 -7.925450919987E+00  1.071444185315E+01        5
 O   1.163370765695E+01  1.707759848643E+01  1.477552687617E+01  0.000000000000E+00  6.771811037803E+00 -3.627735213241E+00 -2.671435996997E+01 -3.138714098793E+00 -2.103390672547E+01  9.940620251061E+00        6
 O   1.102584800394E+01  1.707393235108E+01  1.722018205737E+01  0.000000000000E+00  1.726250573897E+01 -7.682755423183E+00 -5.206572074383E-01 -7.748563387104E+00 -3.333697177095E-01  2.673162690905E+01        7
 O   1.272435818195E+01  2.129562970016E+01  1.571860504211E+01  0.000000000000E+00  1.768333850657E+01  3.942711948038E+01 -3.509930105513E+01  2.910171372183E+01 -2.841321334591E+01  2.959503523193E+01        8
 O   1.323873244154E+01  1.945413257000E+01  1.720873117759E+01  0.000000000000E+00 -9.329044275552E+00 -9.700563457951E+00  1.561228778021E+01 -8.580921725414E+00  1.201058338291E+01 -1.370890037165E+01        9
 O   1.158746986515E+01  2.142465482785E+01  1.787046770361E+01  0.000000000000E+00  1.133723921627E+01 -6.988484729760E+01  1.868860564727E+01 -5.829148318319E+01  1.211796234721E+01  2.096199081732E+01       11
 O   1.924455376639E+01  1.776721467118E+01  2.101614694448E+01  0.000000000000E+00  5.919148888348E+01 -1.264358743050E+01  3.531894836921E+01 -1.495560763251E+01  3.234167531562E+01  5.464755912065E+01       13
 Ca  2.672863117513E+00  1.654844431757E+01  1.672470636266E+01  0.000000000000E+00 -4.509000749907E+00 -1.071834272046E+01  1.776527017440E+01 -1.083250674529E+01  3.648563661589E+00 -6.543667472976E+00       14
 Ca  2.041287685141E+01  1.436393619979E+01  1.870312523941E+01  0.000000000000E+00  8.407859240119E+00  1.175104852632E+01 -1.528095779571E+01  1.530091259284E+01 -1.667787097945E+01  5.916361254759E+00       15
 O   7.392176091173E+00  4.056869855239E+00  1.698372635487E+01  0.000000000000E+00 -1.019470029138E+01 -1.882434201483E-01 -1.361697418609E+02 -1.833949129927E+00 -5.926795386907E+01 -5.539374503774E+00       16
 O   9.305491240416E+00  1.676255812579E+01  1.950402517602E+01  0.000000000000E+00  3.530605570747E+00  9.851195706976E+00 -2.129049043368E+00  1.146232977336E+01 -1.015782488213E+00  6.359898641548E+00       18
 Si  2.008925607096E+01  2.021309814471E+01  1.838867242024E+01  0.000000000000E+00  5.440716453210E+01  1.302323736626E+01  9.835067479287E+00  1.184776544718E+01  1.074461410542E+01  5.474256252090E+01       19
 Si  1.775791224948E+01  2.174338322533E+01  1.862210998534E+01  0.000000000000E+00 -1.055219055465E+01  7.114486774634E+01  2.659051188017E+00  6.093198736991E+01  2.535652388524E+00 -1.292045595637E+01       20
 O   1.858990332693E+01  2.050982497780E+01  1.912989380863E+01  0.000000000000E+00  2.885721891446E+01 -4.095545700613E+01 -1.273220366295E+01 -3.819991366378E+01 -1.237280444945E+01  3.183752485814E+01       22
 O   2.113936596702E+01  2.145579913521E+01  1.791582779278E+01  0.000000000000E+00 -2.594985901052E+01 -8.308721597596E+00  6.276006565583E+00 -6.937873736729E+00  7.405228557438E+00 -2.633829999374E+01       23
 O   1.989443627997E+01  1.957228362799E+01  1.693107242223E+01  0.000000000000E+00 -1.359737627317E+01 -3.308024493903E+00  9.266155617799E+00 -2.861618160932E+00  1.088796609579E+01 -1.337719256127E+01       24
 O   2.091733959190E+01  1.948499095598E+01  1.972994770176E+01  0.000000000000E+00 -1.801983175254E+01 -4.642759592973E+01 -2.001665926503E+01 -4.701126326828E+01 -2.122130609119E+01 -1.678589464898E+01       25
 O   1.834824836888E+01  2.280417316994E+01  1.995465253427E+01  0.000000000000E+00 -3.431027402672E+01 -7.173198645202E+00 -3.606666153021E+01 -6.276863688835E+00 -3.316319652553E+01 -4.264262259172E+01       26
 O   2.201862403740E+01  1.732240906112E+01  2.100298847722E+01  0.000000000000E+00 -4.738113819714E+01 -3.339263022215E+01  7.939477637033E-01 -4.048773039046E+01  8.323404706561E-01 -3.727551077844E+01       27
 O   1.817012937437E+01  2.247182881170E+01  1.719181247018E+01  0.000000000000E+00  1.728888838783E+01 -2.886835823848E+01  3.278951487567E+01 -2.208540325386E+01  3.465543429159E+01  2.138195783812E+01       29
 Ca  4.943665416300E+00  1.060008244779E+01  1.436070991407E+01  0.000000000000E+00 -3.206374964351E+00 -1.631053024066E+00 -2.561300257009E+00 -2.209707278076E+00 -8.817260133445E-01 -6.875028166065E+00       32
 Si  1.410017355043E+01  1.977963923035E+01  1.305305321927E+01  0.000000000000E+00 -1.145643891457E+01 -3.170274939854E+01 -2.930840505943E+00 -2.092139650663E+01 -3.165953519703E+00 -1.607102407529E+01       37
 Si  1.267244392176E+01  2.188001949843E+01  1.419725066350E+01  0.000000000000E+00  1.916240190826E+01  7.789544695760E+01 -1.694397980892E+01  5.054388484807E+01 -1.512417009668E+01  3.308546717414E+01       38
 O   1.278430505374E+01  2.077918880620E+01  1.300466260131E+01  0.000000000000E+00 -1.453821109279E+01  9.536604481426E+00  7.624606475656E-01  5.968487259043E+00  7.495411306537E-01 -2.362992997520E+01       40
 O   1.392454702856E+01  1.889666475180E+01  1.445631264152E+01  0.000000000000E+00  1.093999653330E+01  9.076616777312E+00 -1.304561803610E+00  6.943786725519E+00 -1.256574386324E+00  1.484640372513E+01       41
 O   1.534868509804E+01  2.070806647725E+01  1.304404229548E+01  0.000000000000E+00  2.132219464678E+01 -2.061391692906E+00 -5.249868162315E+00 -1.298473735313E+00 -6.177423486085E+00  2.876737788065E+01       42
 O   1.374032619929E+01  1.871952633628E+01  1.182100927168E+01  0.000000000000E+00  7.211723375320E-01  9.684747010441E+00 -3.560777254365E+00  6.115725480855E+00 -4.138922478911E+00  9.825097577472E-01       43
 O   1.383820391724E+01  2.317553167949E+01  1.408007350515E+01  0.000000000000E+00 -3.250532165654E+01 -5.864722664628E+01  3.915522083246E-01 -3.563056388406E+01  3.848260665017E-01 -5.443828666699E+01       44
 O   1.113131442458E+01  2.252874518411E+01  1.391415348286E+01  0.000000000000E+00  2.354772477685E+00  5.447087583178E+00  9.835751049562E+00  3.364218115459E+00  7.868594928856E+00  4.765840501204E+00       46
 O   8.656469048953E+00  2.193954114925E+01  1.386734959881E+01  0.000000000000E+00 -7.336510238082E+00 -1.258489263409E+01 -7.781267324762E+00 -7.954546753423E+00 -4.857330471010E+00 -1.859414818560E+01       47
 O   1.689646843815E+01  1.586594718747E+01  1.079985997943E+01  0.000000000000E+00  5.865231821715E+00 -1.127350543449E+01 -2.758942787795E+00 -7.673811007387E+00 -4.316388344426E+00  5.507509374887E+00       48
 Ca  6.211353710340E+00  2.086537676716E+01  1.292498163274E+01  0.000000000000E+00  1.601542727175E+00  3.196368038220E+00  6.270884638854E+00  1.979978537962E+00  3.013596744308E+00  5.379953222687E+00       49
 Si  2.003053733035E+01  2.024355974175E+01  2.322442473988E+01  0.000000000000E+00  6.193849520963E+01 -1.091387843415E+01  1.732034173121E+01 -1.252094747899E+01  1.493840021904E+01  6.259720382989E+01       51
 Si  1.942089489511E+01  2.248791368353E+01  2.105750351365E+01  0.000000000000E+00  1.823711958470E+01 -2.560642386864E+01  5.549397923593E+01 -2.397765164764E+01  5.118093592406E+01  2.111719224432E+01       52
 O   1.910270582987E+01  2.112091349521E+01  2.228257879943E+01  0.000000000000E+00 -3.030304213529E+00  1.182718505118E+01 -4.989839764879E+01  1.247768866333E+01 -4.277756269805E+01 -3.350456931501E+00       54
 O   1.961741039937E+01  1.870157766683E+01  2.380243309160E+01  0.000000000000E+00  5.088052544063E+00  2.525261239510E+00 -1.871306540852E+00  3.214026258269E+00 -1.542287221380E+00  4.850518385892E+00       55
 O   2.171656059062E+01  2.013978542851E+01  2.284045202298E+01  0.000000000000E+00 -3.444259545640E+01 -1.983553955356E+01 -7.935021461787E+00 -2.249540796406E+01 -7.544569353943E+00 -3.194182058426E+01       56
 O   2.028668008138E+01  2.098703474305E+01  2.465758349228E+01  0.000000000000E+00 -5.798161680059E+00  1.046490218163E+01  4.104785901314E+00  1.229517187355E+01  3.377154878481E+00 -5.998330931286E+00       57
 O   1.618539135833E+01  2.173241323089E+01  1.864092014314E+01  0.000000000000E+00  6.554415447700E-01 -1.653691814158E+00  2.081957929032E+01 -1.418449793015E+00  1.807706036730E+01  8.800730352624E-01       58
 O   1.479459869216E+01  1.184948270822E+01  1.150008957054E+01  0.000000000000E+00  4.965219489473E-01  1.521612905313E+01 -4.455101606775E+01  1.476746718290E+01 -5.731384960155E+01  3.976808273563E-01       59
 H   4.548696590515E+00  5.430020219734E+00  1.691081560384E+01  0.000000000000E+00  6.169540864656E+00 -1.765687822294E+00  1.742107880870E+01 -5.498915283639E+00  4.685947954055E+00  7.364907941193E+00       70
 H   1.298765906695E+01  1.858459450004E+01  1.767472239653E+01  0.000000000000E+00  9.541222921186E+00  4.715253138137E+00 -5.241736639477E+00  4.484401865521E+00 -3.851709060259E+00  1.365294223621E+01       73
 H   1.488391901887E+01  1.166924337885E+01  1.525903047341E+01  0.000000000000E+00  7.630081590942E+00 -1.327976046421E+01  1.760382130873E+00 -1.736498785948E+01  1.717106805956E+00  5.982112572117E+00       83
 Si  2.113658127934E+00  2.129503322475E+01  2.086251926805E+01  0.000000000000E+00  2.334804769426E+01  3.033145003557E+01 -1.095884418987E+01  2.971540143265E+01  9.159259955944E-02  4.886798333852E+01       89
 Si  2.226932950284E+00  2.096698311165E+01  1.788861819866E+01  0.000000000000E+00 -8.626918181678E+00  5.593543426539E+01  1.499422078681E+01  4.772301394158E+01  2.617377483613E+00  9.541768458111E+00       90
 O   1.460291556225E+00  2.098459336801E+01  1.926783103748E+01  0.000000000000E+00  4.186283294898E+01  2.452210151703E+01  3.018010144673E+01  2.251593349596E+01  1.738230113738E+00 -1.659551014320E+01       92
 O   1.950631266170E+00  1.984354681784E+01  2.139950326028E+01  0.000000000000E+00  5.196633536506E+00 -3.784201528742E+01  2.759017655475E+01 -4.080925335337E+01  3.386630456685E+00  6.343836728687E+00       95
 O   1.471388613136E+00  1.992893094011E+01  1.706818082451E+01  0.000000000000E+00  1.057519616102E+01 -6.915836092541E+01 -7.329417744510E+01 -5.923084451186E+01 -9.271130942557E+00 -4.823287926325E+01       96
 O   3.665267305820E+00  2.048467586376E+01  1.800071382205E+01  0.000000000000E+00  1.411619012017E+01 -2.738631366024E+01  2.788209473833E+00 -2.406546230546E+01  3.938598386188E-01  7.669770976847E+01       97
 O   1.110230383265E+01  1.543468211772E+01  2.073753348734E+01  0.000000000000E+00 -1.201036093447E+01  1.724043847760E+01  3.719729410139E-01  2.316368860328E+01  1.991440597882E-01 -1.669708431123E+01       98
 O   3.409629475704E+00  1.238443559588E+01  1.990806166800E+01  0.000000000000E+00  3.241499658523E+00  2.331042422260E+00  2.597595839805E+01  3.747166024144E+00  4.751260177557E+00  4.568960076969E+00      101
 Ca  2.194420236344E+01  2.357889811036E+01  1.849785164256E+01  0.000000000000E+00  1.410769678747E+00 -1.222297896170E+01  7.176781537598E+00 -9.589033821917E+00  8.513893906298E+00  1.515862548178E+00      102
 O   1.666397196799E+01  4.037495862190E+00  1.066709108378E+01  0.000000000000E+00 -1.533303665919E+01 -1.188016839216E+01  2.084804832355E+00 -3.138748438522E+01  3.256851283281E+00 -3.715024976352E+00      105
 Si  5.132721650704E+00  1.617866955433E+01  1.965059118983E+01  0.000000000000E+00  1.106392260764E+01  2.688007606325E+01  3.156529270973E+00  3.264850574373E+01  8.244833946061E-01  3.487419736059E+01      107
 Si  7.952656355392E+00  1.694426186937E+01  2.038473732267E+01  0.000000000000E+00  9.872767021811E+00  7.675618980988E+00  2.711177927557E+01  9.234127631085E+00  1.057706363094E+01  2.103532987181E+01      108
 Si  7.181804056135E+00  1.981721138545E+01  1.971798683785E+01  0.000000000000E+00  1.254061600266E+01 -2.660601843062E+01  2.507105810773E+01 -2.647280240486E+01  9.131531950519E+00  3.460412401759E+01      109
 O   6.781926640325E+00  1.646684249486E+01  1.939508790672E+01  0.000000000000E+00 -4.874198108066E+00 -2.345287894023E+01 -4.895207683954E+00 -2.762342864781E+01 -1.711718944580E+00 -1.183478630645E+01      110
 O   4.339110205073E+00  1.696861639179E+01  1.856880091717E+01  0.000000000000E+00 -5.858333212200E+00  9.057790891401E+00 -4.516293493052E+01  9.911964059320E+00 -1.055355985140E+01 -2.290972210314E+01      111
 O   4.837318016983E+00  1.682101014188E+01  2.103526315963E+01  0.000000000000E+00 -2.853413765665E+00  3.204618935785E+00  4.766815333899E+01  4.007488377451E+00  1.096187824277E+01 -9.922305218993E+00      112
 O   4.818258764249E+00  1.462430414625E+01  1.957495988165E+01  0.000000000000E+00  2.605649808581E+00 -2.149029498344E+01 -3.161351834300E+01 -2.876524297762E+01 -7.782549802058E+00  8.021693608773E+00      113
 O   8.354781247222E+00  1.628928204184E+01  2.194386010956E+01  0.000000000000E+00 -9.756758934316E+00  5.855481189603E+00 -1.843921297014E+01  7.888122985948E+00 -7.020441707489E+00 -1.902271207258E+01      114
 O   1.234147192562E+01  1.375687425628E+01  3.596071391991E+01  0.000000000000E+00 -1.689195245217E+01  1.902399765611E+01  2.960826067864E+01  4.972906814296E+01  1.016135326862E+01 -1.882923424597E+01      115
 O   7.509649551917E+00  1.850582025881E+01  2.075377111861E+01  0.000000000000E+00  4.055806688077E+00  2.024378307266E+01 -1.738051338987E+01  2.270284886533E+01 -6.289052907271E+00  9.994611473564E+00      117
 O   5.757407038943E+00  2.038590878871E+01  1.998602819001E+01  0.000000000000E+00 -1.181439296125E+01  1.032671802093E+01  3.395185953885E+01  1.012415387588E+01  9.780566365454E+00 -4.183257075153E+01      118
 O   6.891491664411E+00  1.017882998167E+01  2.164223996722E+01  0.000000000000E+00 -4.196133228422E+00  1.277419617670E+01  1.538511899647E+01  2.716051054419E+01  4.899050166746E+00 -6.197747714490E+00      119
 Ca  2.303894457100E+01  1.902769176355E+01  2.092977715853E+01  0.000000000000E+00  3.220677745528E+01  4.434268899214E+01  3.875657796631E-01  4.877536438725E+01  4.266221492778E-01  2.659933627722E+01      120
 Ca  3.093122170120E+00  1.220861201909E+01  1.785559201638E+01  0.000000000000E+00 -4.476046887106E+00 -9.961940102111E+00 -1.686417461707E+01 -1.456974288942E+01 -2.011901545220E+00 -1.041388883912E+01      121
 Si  9.074735477001E-01  1.732232034304E+01  1.386418419944E+01  0.000000000000E+00 -1.898171672661E+02 -2.066118996525E+01 -2.607421410522E+00 -1.653649960197E+01 -1.383001922505E+02  5.119354698753E+01      125
 Si  2.189375542580E+00  1.946120718094E+01  1.554965713854E+01  0.000000000000E+00 -6.973258212344E+00 -2.131598568732E+01  1.208822551907E+01 -1.703163970900E+01 -1.487390793720E+00 -6.064366476335E+00      126
 Si  2.938405950709E+00  2.099196611052E+01  1.292614044498E+01  0.000000000000E+00  5.966879138364E+00 -2.710664806149E+01  2.300230075666E+01 -1.669135411094E+01  5.712466616449E+00  8.357340422339E+01      127
 O   9.233554082927E-01  1.860504679138E+01  1.486960780884E+01  0.000000000000E+00  3.162813931068E+01  4.609136674841E-01  4.073522125548E+00  3.683734604956E-01  1.753312066461E+01  1.366915715916E+01      128
 O   2.158752995500E+00  1.714618334290E+01  1.268794797332E+01  0.000000000000E+00  3.464504062908E+01  9.847596513842E+00  3.340513369822E+01  7.287090644672E+00  3.616940588836E+00 -3.741622678041E+00      129
 O   1.153914181129E+00  1.607888378184E+01  1.512015631711E+01  0.000000000000E+00  1.258813975649E+01 -2.124211268173E+01 -2.645844946230E+01 -1.997551998083E+01  8.312164668043E+00  7.923638424836E-01      131
 O   3.504532373231E+00  1.848822791879E+01  1.583309563918E+01  0.000000000000E+00 -4.158186710794E+00 -3.243235340507E+00 -8.935813110520E+00 -2.777467670355E+00 -2.093268191462E+00 -2.111698823661E+01      132
 O   2.761810910211E+00  4.672666087213E+00  9.241998340114E+00  0.000000000000E+00  1.813674906183E+00 -2.391832571894E+00 -2.483845755997E+01 -4.730770880411E+00 -7.586512524500E+00 -3.659083355035E+00      133
 O   2.477991526753E+00  2.069456705653E+01  1.461782916165E+01  0.000000000000E+00  3.731253990586E+00  4.665925187557E+01 -3.582700444816E+01  3.295826246879E+01 -5.629896426444E+00 -4.416193929732E+00      134
 O   2.091606256392E+00  2.151644717251E+01  1.163038875245E+01  0.000000000000E+00 -1.049785087221E+00 -2.342211362399E+01  1.615028041718E+01 -1.266046781177E+01  3.814009216270E-01 -5.619213743684E+01      135
 O   8.746870920814E+00  1.453729327691E+01  1.294049600429E+01  0.000000000000E+00  5.097752237601E+00 -2.773579680480E+00  4.684749419401E+00 -2.468925685763E+00  3.166563202389E+00  8.472460609279E+00      136
 Si  8.652501251602E+00  1.402542948125E+01  2.546591797279E+01  0.000000000000E+00  1.312131182334E+01  4.768878225636E+01 -1.149232164075E+01  8.658833719039E+01 -3.904721890909E+00  2.126922936251E+01      139
 Si  8.260424253597E+00  1.656034873687E+01  2.358889700818E+01  0.000000000000E+00  2.517338798870E+01 -3.679256032411E+01 -7.733986478739E+00 -5.240807001971E+01 -2.708308466640E+00  5.046715170833E+01      140
 O   7.874477111938E+00  1.508102321065E+01  2.439977946957E+01  0.000000000000E+00  6.922631848017E+00  6.928045401988E+00 -9.522594882915E+00  1.120897286626E+01 -3.073202179769E+00  1.325807035752E+01      142
 O   7.739448757803E+00  1.272462087444E+01  2.565935121810E+01  0.000000000000E+00  1.195379352387E+01  2.456060334813E+01  2.396502077965E+01  4.952675240046E+01  7.228399842509E+00  1.965353029170E+01      143
 O   7.272299118030E+00  1.770973516379E+01  2.400091662769E+01  0.000000000000E+00 -3.982467268350E+00  1.344481462813E+01  5.506065844456E+00  1.822093170678E+01  1.668342855633E+00 -9.698231532595E+00      148
 O   1.258495379388E+01  1.554175326094E+01  1.994806581122E+00  0.000000000000E+00  9.647855276457E+00  4.194365435255E+01  1.834677909374E+00  4.359020531875E+00 -1.583713464929E+01  1.191459171482E+01      150
 Ca  5.066210973831E+00  1.187931311993E+01  7.481489609440E+00  0.000000000000E+00 -6.537940053356E+00  1.299748075889E+00 -6.290440382106E+00  8.185702006913E-01 -4.259672840265E+00 -1.533024136861E+01      151
 Ca  1.214535747803E+01  2.178508443496E+01  1.709715607428E+00  0.000000000000E+00  1.064178160759E-01  8.620316851030E+00 -2.725171660368E+01 -2.125841710975E+00 -8.282083947121E+00  1.908812575332E-01      152
 H   6.564321080859E+00  1.861010756204E+01  1.463233866185E+01  0.000000000000E+00  7.264524052064E+00 -5.236746518774E+01 -1.518435543499E+01 -4.117431793099E+01 -6.811965386028E+00  2.059521043085E+01      155
 H   1.237325740254E+01  1.470085814746E+01  3.622292873550E+01  0.000000000000E+00  9.718531287549E+00 -5.600119787009E+00 -1.187748726419E+01 -1.379870058743E+01 -4.057187321553E+00  1.154673706462E+01      156
 H   1.470366014645E+01  1.223912348413E+01  1.231069221330E+01  0.000000000000E+00 -5.108838251284E+00  2.654741059277E+01  4.283840318365E+01  2.670264756227E+01  5.116538621188E+01 -4.252526350249E+00      159
 H   1.625158423946E+01  2.973025913132E+00  1.090440949328E+01  0.000000000000E+00  2.774907653218E+01  1.006328510238E+01 -7.269709644374E+00  3.369451490147E+01 -1.083454347113E+01  4.819312275383E+00      160
 H   1.564097379276E+01  1.519016446689E+01  1.519742909592E+01  0.000000000000E+00  8.589531472864E+00  4.891693671535E+01 -4.342143174284E+00  4.894033102418E+01 -4.468870831027E+00  8.341961152492E+00      164
 H   1.942492639548E+01  6.516146788778E+00  7.156546955672E+00  0.000000000000E+00  3.801388891554E+01 -6.672930012319E+00 -2.201594236974E+01 -7.328738672265E+00 -5.975759856091E+01  1.275186711871E+01      168
 H   5.644545904826E+00  1.948023796963E+01  3.346497669178E+01  0.000000000000E+00 -4.429409278576E-01 -9.331054348723E+00  1.255703276606E+01 -1.602975881386E+01  2.117997825884E+00 -1.528660555985E+00      169
 Si  1.192338025890E+01  5.114810065485E-01  1.936877149725E+01  0.000000000000E+00 -1.714093794783E+01 -1.873893216635E+02  2.996248725190E+00  3.629968367117E+01  1.844485227457E+00 -1.526144022588E+02      177
 Si  1.074703875575E+01  3.177515322657E+00  1.838751597661E+01  0.000000000000E+00  1.556258390220E+01 -7.699355242851E+00  4.681672266800E+01 -4.175814024074E+01  2.736319215548E+01  4.646473118729E+00      178
 Si  8.140894220554E+00  3.930507092778E+00  2.017595783644E+01  0.000000000000E+00  1.954863041022E+00 -9.356666152320E+00  3.950148420350E+01 -4.802935023976E+01  1.593864375919E+01  9.438278940839E-01      179
 O   1.109522265042E+01  1.410215109317E+00  1.804729798476E+01  0.000000000000E+00  7.462633209642E+00  2.875572660897E+01  3.626627450360E+01  3.704799780256E+01  2.229599082691E+01  7.532827103352E+00      180
 O   1.155003624918E+01  1.323869907295E+00  2.076130929881E+01  0.000000000000E+00  1.253250772346E+01  8.336192224392E+00 -2.060097674727E+01 -1.112060970484E+01 -1.146083923586E+01  7.270477539578E+00      182
 O   1.045432498400E+01  3.635664186195E+00  1.688217263053E+01  0.000000000000E+00 -5.138900638461E+00  2.145073524975E+00 -9.076872876581E+00  1.018306315329E+01 -5.620874810784E+00 -1.866526581184E+00      184
 O   1.202379385079E+01  3.776196321239E+00  1.929768654659E+01  0.000000000000E+00 -1.385600829873E+01 -1.394230675728E+00 -2.185317642337E+01 -8.925634843810E+00 -1.361604084848E+01 -4.301750832797E+00      185
 O   9.447037482448E+00  3.501165525318E+00  1.937109207859E+01  0.000000000000E+00  1.486319275802E+01 -5.683622725062E+00 -2.384253787100E+01 -3.200242543885E+01 -1.162770524399E+01  5.428494148181E+00      187
 O   6.860412422396E+00  3.558233287006E+00  1.938423666641E+01  0.000000000000E+00 -1.069313249696E+01 -8.776392380360E-01  1.233829744140E+01 -5.830149556053E+00  4.366734192061E+00 -5.419347375505E+00      188
 Ca  1.243764613102E+01  3.244280707999E+00  2.173294488620E+01  0.000000000000E+00 -2.167755120818E+01 -3.189704602802E+00 -3.684914529371E+01 -1.478569241363E+01 -2.108856539201E+01 -5.696200073817E+00      190
 O   1.466144739931E+01  1.757524223982E+01  7.365097935996E+00  0.000000000000E+00 -1.996082474506E-01  2.947379098757E+01  9.166051694839E+00  1.235131523119E+01  1.824654416697E+01 -2.392781017088E-01      193
 O   4.192764010872E+00  1.186797077503E+01  1.233258897104E+01  0.000000000000E+00 -7.674886943449E+00 -1.031990611003E+01  2.447596900002E+01 -1.072391925185E+01  8.314290173012E+00 -2.166502251313E+01      194
 Si  1.857978256949E+01  1.539612175231E+00  1.979393675012E+01  0.000000000000E+00  4.016365528288E+01  9.920519358169E+00 -8.827003479454E-02  1.467824951384E+01 -8.285557716933E-02  3.913377768221E+00      196
 Si  1.642743706127E+01  3.906783656272E+00  1.949500438685E+01  0.000000000000E+00 -6.524380699659E+01  1.028598119561E+00  2.149968751192E+01  2.666556445475E+00  1.811668037773E+01 -1.561714006310E+01      197
 O   2.004515332106E+01  2.034502557944E+00  2.043979639189E+01  0.000000000000E+00  3.191680988746E+01  5.833671372084E+00 -6.493614951313E+00  4.856172135941E+00 -6.368238939928E+00  6.378275683243E+00      202
 O   1.764994648973E+01  2.942925612269E+00  1.954479291681E+01  0.000000000000E+00  4.490165750287E+01 -7.915105958778E+00  2.162083491289E+01 -6.921359768487E+01  1.952471847106E+01  6.848064042178E+00      205
 O   1.577814157677E+01  4.770016120949E+00  2.074581265357E+01  0.000000000000E+00  9.651268171056E+00 -2.078821150733E+00 -2.428821502727E+01 -9.041234461237E+00 -1.847230097691E+01  2.917752039398E+00      206
 Ca  1.336110445902E+01  5.489732519559E+00  1.917915492890E+01  0.000000000000E+00  1.433793220841E+00 -2.830239876082E+00 -5.465313741448E+00 -9.887842235654E+00 -3.807395480745E+00  5.891085796772E-01      209
 O   2.226400007451E+01  1.940935304232E+01  1.523458322866E+01  0.000000000000E+00 -2.144857050325E+00 -3.909390316576E+01 -3.672852286393E+01 -3.068517122715E+01 -5.367549761655E+01 -1.869847627369E+00      210
 O   1.445600320503E+01  1.636384335537E+01  4.051806916142E+00  0.000000000000E+00 -4.011747739896E+01  3.054357719844E+00 -6.409383414752E+00  7.433226461007E-01 -2.270987558015E+01 -4.541200680841E+01      212
 Si  1.419075864543E+01  3.629968236344E+00  1.537924059640E+01  0.000000000000E+00  1.307463143719E+01 -5.765577613017E+00 -3.281405388413E+01 -1.991335337148E+01 -3.027823876797E+01  3.144495310745E+00      213
 Si  1.138433457724E+01  4.361376587217E+00  1.575442936692E+01  0.000000000000E+00  9.224729384784E+00  4.612893928028E+00  4.551812156591E+00  1.742854813520E+01  3.289192602063E+00  3.552967089095E+00      214
 Si  1.009149259648E+01  6.372145220687E+00  1.345933751467E+01  0.000000000000E+00  6.491938358033E+00 -7.619146249262E+00  2.593062781131E+00 -1.609327116550E+01  1.944217078253E+00  4.099252274690E+00      215
 O   1.254715613140E+01  3.179271907271E+00  1.546470355540E+01  0.000000000000E+00 -3.037044845575E+00  1.050600462153E+01  1.211505612617E+01  3.894987365847E+01  9.829448085522E+00 -8.051554475587E-01      216
 O   1.515462372604E+01  3.840409853965E+00  1.667348352566E+01  0.000000000000E+00 -1.171972531089E+01  1.585274143230E+00 -1.357131885897E+01  3.132824589337E+00 -1.233504866918E+01 -2.813454319712E+00      217
 O   1.461254205973E+01  4.855809704537E+00  1.432659080308E+01  0.000000000000E+00 -1.080154574130E+01 -5.689522133914E+00  7.016630983344E+00 -1.678637764604E+01  7.156679266617E+00 -3.589399463846E+00      218
 O   1.450774915688E+01  1.971811001781E+00  1.495013904455E+01  0.000000000000E+00  1.740006947912E+01  1.725589081685E+01  6.350710034260E+00  2.809105653195E+01  6.162786036343E+00  3.453449761178E+00      219
 O   1.196424709679E+01  5.764785521274E+00  1.667140477601E+01  0.000000000000E+00 -3.666878640695E+00 -8.386126919588E+00 -1.125089901657E+01 -2.425216269773E+01 -8.074216762407E+00 -1.766828177748E+00      220
 O   1.069192274956E+01  4.859267112482E+00  1.436665534808E+01  0.000000000000E+00  1.650454227459E+00  4.946501665763E+00  1.150156823648E+01  1.462456847210E+01  8.559673501162E+00  7.500987554813E-01      222
 O   1.137662037888E+01  6.892131212203E+00  1.266035551589E+01  0.000000000000E+00 -1.238708073088E+01 -2.504312799451E+00  6.744928290928E+00 -4.600244741122E+00  6.061005834501E+00 -7.504283600062E+00      223
 O   2.115792563322E+01  2.178286961602E+01  1.276997132357E+01  0.000000000000E+00  2.340344997536E+01 -5.501749185483E+01  8.478924188673E+00 -3.225340855753E+01  1.404830464282E+01  2.409472025830E+01      224
 Ca  1.583371628561E+01  7.282348306045E+00  6.072084030510E+00  0.000000000000E+00 -7.724505079894E+00  1.061351640112E+01 -1.297013584773E+00  8.849640354788E+00 -3.382124657152E+00 -3.552705850534E+00      225
 Ca  1.695120651453E+01  4.803594150724E+00  1.545988186358E+01  0.000000000000E+00 -1.802270357086E+00  1.413897129686E+00  8.781110440910E-01  4.550484888260E+00  9.628172959163E-01 -5.107232537048E-01      226
 Si  2.170323324810E+01  2.322791624912E+00  2.014211997832E+01  0.000000000000E+00 -3.005092348054E+01  2.227716700988E+00 -4.061879949655E+00  1.607184369975E+01 -4.376695604436E+00 -2.307318933455E+00      228
 Si  2.302577596851E+01  4.959068499186E+00  2.134317134488E+01  0.000000000000E+00  4.863217892574E+01 -5.877796150427E+00 -6.617293256749E+01 -2.529725297996E+01 -7.138972441618E+01  1.047392743190E+01      229
 O   2.278852152325E+01  1.009387483321E+00  2.023056141729E+01  0.000000000000E+00 -9.551777268384E-01  1.922853476807E+01  4.430619987861E+01 -2.935546431802E-01  4.990829313735E+01 -9.140137045273E+00      230
 O   2.220844715433E+01  3.505880744416E+00  2.134881649697E+01  0.000000000000E+00 -1.794465010972E+01 -6.283837012680E+00 -5.710093664133E+01 -3.762775116227E+01 -5.940016084927E+01 -2.869380454319E+00      236
 O   2.293698824132E+01  4.926271088408E+00  2.294114691094E+01  0.000000000000E+00  6.700843008502E-02  3.841253883527E-01  4.254013825131E+01  1.788833137331E+00  4.253242676326E+01  1.439167550397E-02      237
 H   1.423524140429E+01  1.640647823641E+01  4.957345906433E+00  0.000000000000E+00 -9.247729108727E+00 -4.459923942398E-01  1.150192625066E+01 -1.347600952518E-01  3.302829777928E+01 -1.065824330263E+01      243
 H   1.871722557976E+01  1.938021247393E+01  7.627708805175E+00  0.000000000000E+00  1.186715617714E+00 -2.556330896949E+01  4.789493859150E+00 -1.006126621048E+01  1.175268213094E+01  1.228750528193E+00      247
 H   1.355915355359E+01  8.470679924738E+00  7.539629720509E+00  0.000000000000E+00 -4.675364832975E+01  3.014584130167E+00 -6.087509979691E+00  2.683237745344E+00 -1.094768385629E+01 -2.920795820696E+01      248
 H   6.287054862281E+00  1.078208947715E+01  1.019742129974E+01  0.000000000000E+00 -2.334840537603E-01 -2.180803599757E+00  7.104365702593E+00 -2.062547628253E+00  4.380081554052E+00 -4.004173677942E-01      249