     8448
Lattice="     49.70      0.00      0.00      0.00     49.70      0.00      0.00      0.00     49.70" pbc="T T T" config_type=md Properties=species:S:1:pos:R:3:charge:R:1:forces:R:3:id:I:1
 Si  1.090571276419E+01  1.730295642136E+01  1.648243351551E+01  0.000000000000E+00 -1.507000722647E+01 -6.266692874005E+00 -1.268973459219E+01 -5.969520245132E+00 -8.396248065307E+00 -2.391000789653E+01        1
 Si  1.279075607403E+01  1.989880754168E+01  1.675940577637E+01  0.000000000000E+00  2.902462468920E+00 -1.305737673634E+01  4.322735028681E+01 -1.099733612885E+01  3.299105592544E+01  4.515412672381E+00        2
 Si  1.111727773989E+01  2.263955848780E+01  1.802559956393E+01  0.000000000000E+00 -2.516226450850E+00 -5.629400606241E+01  2.006699122611E+01 -4.482124559440E+01  1.237630482544E+01 -5.124119162570E+00        3
 O   1.194306743388E+01  1.847398144507E+01  1.703277861983E+01  0.000000000000E+00  1.530585222312E+01 -6.582485434193E+00  3.405421505972E+00 -6.068968809037E+00  2.387818194223E+00  2.367566218113E+01        4
 O   9.889150006369E+00  1.844022456405E+01  1.571750171377E+01  0.000000000000E+00  4.326204871514E+00 -4.630535441044E+01 -8.310590658350E+00 -3.946830933512E+01 -5.228863922435E+00  8.067042090516E+00        5
 O   1.157826227111E+01  1.612290710279E+01  1.550921121446E+01  0.000000000000E+00  2.666655409231E+00  3.650496302907E+01 -4.452816273349E+01  3.511545271486E+01 -3.324209977217E+01  3.713358397959E+00        6
 O   1.018971497244E+01  1.627079671448E+01  1.762897842925E+01  0.000000000000E+00  1.156865226892E+01  1.673767344210E+01 -4.202218560613E+01  1.813482703057E+01 -2.428921764037E+01  1.847266482302E+01        7
 O   1.351649562966E+01  2.024545811114E+01  1.532627998538E+01  0.000000000000E+00 -1.629343783521E+01 -4.737706550611E+00 -1.610100230491E+01 -3.586553422729E+00 -1.419973584555E+01 -2.440485479502E+01        8
 O   1.426309211626E+01  1.996533845271E+01  1.773441088655E+01  0.000000000000E+00 -2.221412842918E+01 -8.680313300320E+00 -1.730943319342E+01 -7.710374810649E+00 -1.392129920172E+01 -3.109512221511E+01        9
 O   1.175547078836E+01  2.093086302700E+01  1.746051222225E+01  0.000000000000E+00 -2.567275005299E+00  3.000615021953E+01  1.472752983152E+01  2.503111085171E+01  9.915462073239E+00 -4.571087152186E+00       11
 O   1.925180081629E+01  1.808917176413E+01  2.088811432951E+01  0.000000000000E+00  2.442168217911E+01 -3.466160266191E+01 -1.750141233814E+01 -4.002480205765E+01 -1.613040310975E+01  2.294684055391E+01       13
 Ca  3.739361583776E+00  1.585620370325E+01  1.738764107169E+01  0.000000000000E+00 -6.262357156616E-01 -5.899133241272E+00 -2.033218354670E+00 -6.468888351394E+00 -4.365412230955E-01 -2.638115302251E+00       14
 Ca  2.265983264637E+01  1.292745715750E+01  1.833894806128E+01  0.000000000000E+00 -1.396261610354E+01  1.221114721954E+01 -1.281968823323E+00  1.732278760621E+01 -1.584016645737E+00 -7.965686432994E+00       15
 O   6.394217876527E+00  4.517703722990E+00  1.641480992927E+01  0.000000000000E+00 -1.755553911403E+00  5.502470531403E-01  9.390690702041E+00 -2.865284180082E-01  3.658045546593E+00 -1.242462106595E+00       16
 O   9.755993605989E+00  1.709021846836E+01  2.013223291606E+01  0.000000000000E+00  2.137417464260E+01 -7.967545316037E+00 -4.414250531774E+01 -9.385747664297E+00 -2.139126849107E+01  3.744255367271E+01       18
 Si  2.031431120277E+01  1.982583353570E+01  1.823855252302E+01  0.000000000000E+00  1.559363457964E+01  1.548568865097E+01 -9.101878273988E+00  1.424588506240E+01 -1.013777752123E+01  1.521867024220E+01       19
 Si  1.803061182764E+01  2.162545916230E+01  1.817232141674E+01  0.000000000000E+00  3.598142579801E+01 -6.927579305285E+00  5.968129210583E+01 -5.821388430682E+00  5.921589139077E+01  4.315521079565E+01       20
 O   1.876325144691E+01  2.009135473257E+01  1.864068731565E+01  0.000000000000E+00 -1.199448866341E+01  1.095996704810E+01 -1.783038216185E+01  1.016861836610E+01 -1.794761846664E+01 -1.284348436379E+01       22
 O   2.111021920811E+01  2.129860433089E+01  1.837899154439E+01  0.000000000000E+00 -1.622277640274E+01 -5.147165693308E+01 -2.306624753773E+01 -4.441592194736E+01 -2.649402937337E+01 -1.636754655858E+01       23
 O   2.034065339385E+01  1.907233415671E+01  1.673740090141E+01  0.000000000000E+00  1.575922419985E+01  1.629752999420E+01  2.035341509027E+01  1.430230253803E+01  2.473512848088E+01  1.477657497870E+01       24
 O   2.134852653123E+01  1.885028964070E+01  1.929150545293E+01  0.000000000000E+00 -3.375690832015E+01 -9.740771627185E+00 -2.531261073066E+00 -9.968767193680E+00 -2.801165223091E+00 -2.980662380977E+01       25
 O   1.854024308295E+01  2.224631102002E+01  1.987214028583E+01  0.000000000000E+00 -2.221420006746E+01 -1.999547671123E+01 -1.280731629342E+01 -1.786151950901E+01 -1.194892718674E+01 -2.665466690759E+01       26
 O   2.173733931887E+01  1.718128996897E+01  2.130963384467E+01  0.000000000000E+00  5.070211105910E+00  5.374346368753E+00 -3.446333942796E+01  6.665701671958E+00 -3.515505281168E+01  4.007517476573E+00       27
 O   1.872360588273E+01  2.245013958596E+01  1.702233339130E+01  0.000000000000E+00  2.471720354095E+01  2.508166485661E+01 -1.748787780321E+01  1.901763058370E+01 -1.923567845756E+01  2.963663479911E+01       29
 Ca  4.821972730575E+00  9.950355248303E+00  1.387934595192E+01  0.000000000000E+00 -6.249593669629E-02  4.400059727042E+00 -8.393521343755E+00  6.137464405718E+00 -2.913667797533E+00 -9.031645312193E-02       32
 Si  1.234366552661E+01  1.868279380943E+01  1.175153356844E+01  0.000000000000E+00 -1.032400901248E+01 -7.008571053736E+01 -2.188521902999E+01 -4.408412298763E+01 -2.298796341002E+01 -1.562593633560E+01       37
 Si  1.246789966401E+01  2.079842055413E+01  1.400675309678E+01  0.000000000000E+00  7.948704835019E-01  1.429646459589E+01 -3.385271069783E+00  9.627993107954E+00 -3.013347900251E+00  1.325969172631E+00       38
 O   1.185812511596E+01  1.965397295585E+01  1.288008749134E+01  0.000000000000E+00 -1.634476431297E+01  5.729166779936E+01  4.912297560637E+01  3.754567564727E+01  4.522534425331E+01 -2.709024846976E+01       40
 O   1.344257376635E+01  1.777210394913E+01  1.240301258214E+01  0.000000000000E+00  9.540875499438E-01 -2.121440504325E+01  1.202738881471E+00 -1.480536763836E+01  1.303546701155E+00  1.261376237087E+00       41
 O   1.302269917442E+01  1.950820136290E+01  1.050385825043E+01  0.000000000000E+00  2.235736650495E+01  2.112236244102E+01 -6.431226691448E+00  1.137297574837E+01 -7.973444474255E+00  3.349167495011E+01       42
 O   1.091761159277E+01  1.801213690044E+01  1.107189813763E+01  0.000000000000E+00  1.856810181391E+01  2.225668305739E+01  1.361611194379E+01  1.368098238732E+01  1.342637186128E+01  3.063409876890E+01       43
 O   1.313682998056E+01  2.200333066893E+01  1.321424534791E+01  0.000000000000E+00  6.683616929082E+00 -1.720200559340E+01 -9.618332737439E-01 -1.033077790847E+01 -9.561983945468E-01  1.119462104424E+01       44
 O   1.125090776437E+01  2.145385981846E+01  1.489045821883E+01  0.000000000000E+00  3.841566708141E+01 -6.713766271056E+01 -2.660250125184E+01 -4.659816788033E+01 -2.010027384566E+01  7.325314131607E+01       46
 O   8.763983154351E+00  2.123850856646E+01  1.555788722915E+01  0.000000000000E+00  8.726172031322E-01  8.544047891526E+00  5.370059847965E+00  6.258788519016E+00  3.025032470813E+00  2.114687764406E+00       47
 O   1.704143523130E+01  1.574517019638E+01  1.044978040227E+01  0.000000000000E+00  1.087813219126E+01 -2.323430522636E+00 -4.361433166650E+00 -1.542018183270E+00 -7.112597390939E+00  1.005068179091E+01       48
 Ca  7.430902682095E+00  2.155264433581E+01  1.370776015760E+01  0.000000000000E+00  3.825498207440E+00  1.186092028256E+00 -2.364362093862E+00  7.543698487689E-01 -1.281707910171E+00  1.109550290181E+01       49
 Si  2.077472420356E+01  2.071901082890E+01  2.323923683885E+01  0.000000000000E+00  5.772395523273E+01  1.316908055178E+01 -6.766950277239E+01  1.477094560257E+01 -6.049317655468E+01  5.756915190954E+01       51
 Si  1.955153114469E+01  2.275116219987E+01  2.100441667427E+01  0.000000000000E+00  1.717874380059E+01  3.823782517667E+01 -5.751089203331E+01  3.530207405112E+01 -5.353283617371E+01  1.999006541763E+01       52
 O   2.030291007989E+01  2.210100263070E+01  2.225715602460E+01  0.000000000000E+00  3.585668410774E+00 -4.806121784741E+01  2.089459968230E+01 -4.840079168517E+01  1.905999032563E+01  3.903227008716E+00       54
 O   1.955292777637E+01  1.977648781970E+01  2.358220958170E+01  0.000000000000E+00 -2.243412303558E+01 -8.903895074820E+00  1.010396890523E+00 -1.061733112887E+01  8.377593862618E-01 -2.269062546710E+01       55
 O   2.211508134974E+01  1.985544737013E+01  2.254544020671E+01  0.000000000000E+00 -6.387997429104E+01  3.989125852255E+01  2.741839996099E+01  4.529567967043E+01  2.689502356385E+01 -5.735296413712E+01       56
 O   2.127376362952E+01  2.152063497310E+01  2.448684988911E+01  0.000000000000E+00  3.114612709863E+01  2.136464845006E+01  5.506208125846E+01  2.430936355662E+01  4.783701076074E+01  3.150756226252E+01       57
 O   1.647622288458E+01  2.173921968900E+01  1.826003201222E+01  0.000000000000E+00 -1.275159702705E+01 -5.672939494348E-01 -8.419820465141E+00 -4.765031047669E-01 -7.597294382559E+00 -1.682483728817E+01       58
 O   1.707713926675E+01  1.805010017309E+01  1.407194356205E+01  0.000000000000E+00  4.175474438922E+01  1.082912883095E+01 -2.067706627819E+01  8.442440112463E+00 -2.509284797110E+01  4.413369869241E+01       59
 H   2.653284884622E+00  8.521496769012E+00  1.491267871634E+01  0.000000000000E+00  1.382871653940E+00  1.280970554767E+01  5.430909303895E+00  2.241707395561E+01  1.136596682314E+00  1.100389149486E+00       70
 H   1.423816766534E+01  1.985136330116E+01  1.870710607428E+01  0.000000000000E+00  2.379983427729E+00  2.727873743118E+00 -7.260685554407E+00  2.570635713809E+00 -5.526181221109E+00  3.318258134408E+00       73
 H   1.695100884120E+01  1.128321674367E+01  1.856888700979E+01  0.000000000000E+00  3.267005479223E-01 -3.286809766359E+00 -1.927000427003E+01 -5.409131151226E+00 -1.759103884788E+01  2.174639354516E-01       83
 Si  2.347838444451E+00  2.101117149190E+01  2.183954833927E+01  0.000000000000E+00  4.733666617776E+00 -2.995374476705E+00 -9.405011092594E+00 -3.113468742256E+00 -2.150930116303E+00  8.089565001137E+00       89
 Si  2.940009834071E+00  2.083255499778E+01  1.881700153302E+01  0.000000000000E+00 -4.582547219024E+00 -3.597047445474E+01  1.036433064920E+01 -3.249032454398E+01 -7.130934570819E-01 -3.545481730164E+00       90
 O   2.003185356147E+00  2.045295640113E+01  2.028162486312E+01  0.000000000000E+00  6.481441434384E+00  7.894625524109E+00 -4.242692327804E+01  7.828493356879E+00 -3.293716349365E+00  3.771925444114E+01       92
 O   1.421063924308E+00  2.008218551829E+01  2.279444553118E+01  0.000000000000E+00  8.405352180259E+00  1.357664919711E+01  1.764962287557E+01  1.541028442038E+01 -7.350614017678E+00 -8.338172703505E+00       95
 O   2.629737851443E+00  1.954502879211E+01  1.779433874328E+01  0.000000000000E+00 -4.741642657849E+00 -6.284650273525E+00 -2.350976185808E+01 -5.721720701445E+00 -4.332675242169E+00 -2.809085252760E+01       96
 O   4.525773899344E+00  2.042218233766E+01  1.893486592055E+01  0.000000000000E+00 -2.430024338371E-01  1.565039856654E+01  9.514497829246E+00  1.451060388948E+01  2.274154029223E+00 -1.096861984098E+00       97
 O   1.157612043598E+01  1.380764528394E+01  2.116792163271E+01  0.000000000000E+00  9.993547078759E+00  5.351052473777E+00  1.665291014982E+00  8.203474023859E+00  9.106992025419E-01  1.191999979224E+01       98
 O   3.822457348213E+00  1.231803244751E+01  2.065114772961E+01  0.000000000000E+00 -6.883708732613E+00 -1.271721370454E+01 -2.937947260955E+01 -2.132037401593E+01 -5.441730506461E+00 -2.215430707634E+01      101
 Ca  2.205580951491E+01  2.415457900696E+01  1.860816748620E+01  0.000000000000E+00 -9.910205061288E+00 -2.627134093365E+00 -2.259746621619E+01 -2.023887528900E+00 -2.678422852511E+01 -1.085323261276E+01      102
 O   1.678792792044E+01  4.609743392614E+00  1.179699550271E+01  0.000000000000E+00  9.158715927662E+00 -8.233149033250E+00  2.703317875129E+00 -2.106981101682E+01  3.847005419581E+00  2.514862491217E+00      105
 Si  5.713688329002E+00  1.587584212984E+01  2.030306551090E+01  0.000000000000E+00  1.066090768449E+01 -1.259068185025E+01 -1.879330025163E+01 -1.610178763065E+01 -5.288810217036E+00  2.962200204388E+01      107
 Si  8.691049155164E+00  1.680828381782E+01  2.115758614794E+01  0.000000000000E+00 -2.920458897998E+01  1.075948143245E+01  2.602830571428E+01  1.354359896474E+01  1.069182858605E+01 -5.648098539020E+01      108
 Si  7.717342410570E+00  1.948965093270E+01  2.053695143559E+01  0.000000000000E+00 -9.876075673398E+00 -1.561817577414E+01  1.036587472320E+02 -1.645743777011E+01  3.895271646081E+01 -2.494139267371E+01      109
 O   7.296787938905E+00  1.602884873803E+01  2.078142017595E+01  0.000000000000E+00 -4.056566951997E+00 -1.548083865574E+00 -4.093810764792E+01 -2.007092449614E+00 -1.437421925921E+01 -8.911057661765E+00      110
 O   5.050821068437E+00  1.691150838385E+01  1.928268232449E+01  0.000000000000E+00  4.622436755792E-01  5.672758738393E+00 -1.979618789894E+01  6.468140048368E+00 -5.185326461957E+00  1.547716240393E+00      111
 O   5.044708964776E+00  1.601781293658E+01  2.168695030371E+01  0.000000000000E+00 -1.104971945554E+01  1.051687204691E+01  5.843409604768E+01  1.423907760285E+01  1.359264461126E+01 -3.508474730186E+01      112
 O   5.369120721950E+00  1.422362057059E+01  1.993365392539E+01  0.000000000000E+00  3.702990754827E+00  1.531860906659E+01 -1.354686368977E+01  2.146822254125E+01 -3.648841643704E+00  9.809787896508E+00      113
 O   8.917155445164E+00  1.583611357883E+01  2.247532753078E+01  0.000000000000E+00 -3.137147454335E+00 -9.733195433455E+00  2.724504585362E+01 -1.381379049847E+01  1.080955588543E+01 -5.571308440891E+00      114
 O   1.168832575357E+01  1.310684414903E+01  3.724089419472E+01  0.000000000000E+00 -6.573222998237E+00 -2.066664788464E+00 -2.190211408577E+01 -5.872080559443E+00 -6.874137951355E+00 -7.370962378285E+00      115
 O   8.265488162535E+00  1.837039439544E+01  2.165720533256E+01  0.000000000000E+00  8.143066217261E+00  6.280825634550E+00 -4.086130322059E+00  7.404584109486E+00 -1.559474608516E+00  1.809830648325E+01      117
 O   6.171276334418E+00  1.935326901677E+01  2.107584919675E+01  0.000000000000E+00 -6.246834413566E+00  1.274581443447E+01 -4.144651762345E+00  1.388028361916E+01 -1.213606678269E+00 -1.959022094582E+01      118
 O   6.724468018115E+00  9.972162058674E+00  2.254890784816E+01  0.000000000000E+00  7.415465246803E+00 -1.310990462504E+01 -3.115493711017E+01 -2.964392571529E+01 -9.290932386371E+00  1.099688792963E+01      119
 Ca  2.320563250594E+01  1.914315297494E+01  2.090152656699E+01  0.000000000000E+00  9.539428184866E+00 -8.671420017762E+00  1.626895414608E+00 -9.467923915771E+00  1.806238266664E+00  7.869414160103E+00      120
 Ca  3.098231005952E+00  1.224352676663E+01  1.774536814116E+01  0.000000000000E+00 -3.868337081043E+00  1.800735276838E+00  5.831521911171E-02  2.609926945181E+00  1.116328848009E+00 -3.711527601460E-01      121
 Si  1.462290685032E+00  1.696045559784E+01  1.467388210219E+01  0.000000000000E+00 -6.235949263416E+00 -2.264996959141E+01 -4.239958104631E+01 -1.959634760311E+01 -4.672141364263E+00 -5.161052753360E+01      125
 Si  2.829298002128E+00  1.896707548416E+01  1.624303414195E+01  0.000000000000E+00 -6.916226651910E-01  1.380340781080E+01  1.434224054089E-01  1.182096968683E+01 -4.611262809663E-02 -1.813604957076E+00      126
 Si  3.322883550760E+00  2.069650631592E+01  1.330062874995E+01  0.000000000000E+00 -1.139792938808E+01  9.977156374643E+00  1.545462214165E+01  6.411828687107E+00  2.899021098407E+00 -5.534052410476E+01      127
 O   1.532568201141E+00  1.807728175528E+01  1.575070500416E+01  0.000000000000E+00 -8.282599370580E-01  3.295560546127E+01  3.268592546809E+01  2.871416327304E+01  3.585533528334E+00 -8.950494387314E+00      128
 O   2.566387414024E+00  1.668576764370E+01  1.351180849083E+01  0.000000000000E+00  6.976806371102E-01  2.639083653396E+00  9.216533390601E+00  2.137078357881E+00  1.869517536540E+00 -6.384457649520E-01      129
 O   9.107299001036E-01  1.555189382442E+01  1.550923527278E+01  0.000000000000E+00  7.458474064189E+00 -3.245377838071E+00 -2.239037248290E+01 -3.236475827829E+00  2.454919014337E+00  1.289476897021E+01      131
 O   3.924874225265E+00  1.780916529492E+01  1.636042282801E+01  0.000000000000E+00  5.415617571726E+00  1.275296877939E+00 -2.590717662262E+00  1.171553849314E+00 -6.215145589112E-01  2.457343164988E+01      132
 O   3.025436954615E+00  5.291005936454E+00  8.883194638798E+00  0.000000000000E+00  9.267980393750E-01 -8.901767119166E+00  2.599416961536E+01 -1.494538673714E+01  8.522806951393E+00 -2.302066147005E+00      133
 O   2.925722723866E+00  2.008742867569E+01  1.502530745574E+01  0.000000000000E+00  3.181246188905E+00  1.342505411960E+01 -1.680443744011E+01  1.004188087054E+01 -2.616243739011E+00  2.999161324037E+01      134
 O   1.768215607292E+00  2.141755525101E+01  1.297302095656E+01  0.000000000000E+00  2.893910263477E+01 -2.729512812853E+01  4.923486762932E+00 -1.653317874395E+01  1.416533109224E+01  1.884715265006E+01      135
 O   8.188845171046E+00  1.627660425978E+01  1.243813916781E+01  0.000000000000E+00 -5.154658650943E+00 -3.498560447922E+00 -1.729111727585E+01 -2.673504930375E+00 -1.138387987913E+01 -1.024568632123E+01      136
 Si  9.169402526666E+00  1.411559426261E+01  2.617554985602E+01  0.000000000000E+00  1.014517245380E+01 -5.683715694440E+01  1.375064889302E+01 -1.053971804229E+02  4.816908733399E+00  1.561771747566E+01      139
 Si  8.379654211143E+00  1.605321283333E+01  2.412378057921E+01  0.000000000000E+00 -2.462195106820E+00  2.600208468745E+01 -2.119874549676E+01  3.907433310172E+01 -7.363611867947E+00 -4.716918036355E+00      140
 O   8.212617115741E+00  1.484348142455E+01  2.519655457210E+01  0.000000000000E+00 -1.942775228067E+01  7.031146388650E+00 -5.455881778368E+01  1.193525013566E+01 -1.778301392211E+01 -3.511371296565E+01      142
 O   8.329670684130E+00  1.259359493092E+01  2.653180455902E+01  0.000000000000E+00 -3.256389132936E-01 -8.416420004961E+00 -1.169114047590E+01 -1.773145887915E+01 -3.670438242130E+00 -4.923321369207E-01      143
 O   6.948443755741E+00  1.685693649415E+01  2.388454415185E+01  0.000000000000E+00 -1.930639400283E+00  8.815231342478E+00  3.700378505640E+01  1.249027557773E+01  1.076506704835E+01 -4.683734503396E+00      148
 O   1.347664503741E+01  1.511934855722E+01  1.288186873042E+00  0.000000000000E+00  5.225837804073E-01 -8.410979430366E+00  2.399077786246E+01 -1.767215666174E+01  2.540469914819E+00  5.862828845304E-01      150
 Ca  5.606445288330E+00  1.131904656202E+01  8.536808755626E+00  0.000000000000E+00  4.990000889195E+00  9.217992208445E-01 -8.687642256216E+00  6.952196562064E-01 -5.705503354746E+00  1.007448561514E+01      151
 Ca  1.279340689431E+01  2.209983389603E+01  1.504617336179E+00  0.000000000000E+00 -1.114897251721E+00  7.760180747362E+00 -1.476651170298E+01 -2.597741692791E+00 -1.373625743369E+00 -1.925917332086E+00      152
 H   7.473599975366E+00  1.891063993165E+01  1.540782117550E+01  0.000000000000E+00 -1.343112953146E+01  4.567453633415E+00  7.511635357308E+00  3.721423974303E+00  3.643536433990E+00 -3.398512835607E+01      155
 H   1.207038873191E+01  1.318177557539E+01  3.628142133202E+01  0.000000000000E+00 -3.312130445313E+00 -3.833972638399E+00  9.855722836614E+01 -1.055259785555E+01  3.278879423802E+01 -3.617096447865E+00      156
 H   1.787537352115E+01  1.773773470011E+01  1.348440378806E+01  0.000000000000E+00 -3.446738270674E+01  8.347077849492E+00  1.830936306848E+01  6.345532283344E+00  2.427149979544E+01 -3.420198685840E+01      159
 H   1.712940665774E+01  4.004164796386E+00  1.102972533709E+01  0.000000000000E+00 -7.308829137495E+00  3.143712362480E+00  7.271001374211E+00  8.233496349343E+00  1.129202546224E+01 -1.697091179075E+00      160
 H   1.639056991986E+01  1.722926363249E+01  2.109802418679E+01  0.000000000000E+00  4.568735216837E+01 -3.913843082990E+01  1.422127857874E+01 -4.792680510878E+01  1.104818436224E+01  4.802514122621E+01      164
 H   1.778124993406E+01  6.741173353647E+00  4.061842059265E+00  0.000000000000E+00 -2.268951615031E+01  4.409928588762E+00 -2.912198313241E+00  2.592991180290E+00 -1.134230225573E+01 -8.601980302105E+00      168
 H   5.490311425349E+00  2.274884888870E+01  3.040129167232E+01  0.000000000000E+00  1.292899422921E+01 -2.929109171388E+01 -3.693390955775E+01 -3.914426734080E+01 -6.670067437047E+00  5.357068355814E+01      169
 Si  1.231266035733E+01  1.064245806767E+00  1.986535893016E+01  0.000000000000E+00  6.325938872827E+01 -1.306137693437E+02  5.527583837877E+01 -7.456375296745E+01  3.426027318796E+01 -6.902509697612E+01      177
 Si  1.062318538679E+01  3.457618653590E+00  1.901766071783E+01  0.000000000000E+00  5.773585860167E+01 -5.951871898534E-02 -9.085226625050E+00 -4.155420458074E+00 -5.074969427149E+00  1.831671828645E+01      178
 Si  8.070662958124E+00  4.148052292508E+00  2.038457973009E+01  0.000000000000E+00 -9.061625819685E-01 -2.336620411673E+00 -8.219014564746E+00 -1.148274460443E+01 -3.254072307514E+00 -4.657374239294E-01      179
 O   1.131720578696E+01  1.951371198756E+00  1.918304210111E+01  0.000000000000E+00 -4.251721288937E+01  1.577696081540E+01 -5.454102624341E+01  5.039545700873E+01 -3.217696205718E+01 -6.050824994454E+00      180
 O   1.292279901095E+01  1.162223895119E+00  2.152863572933E+01  0.000000000000E+00 -3.590298868585E+01  7.858463597581E-01 -3.305119785784E+01  5.252444380557E+00 -1.983934292715E+01 -7.695708729701E+00      182
 O   1.148114981388E+01  3.782001030040E+00  1.735173766086E+01  0.000000000000E+00 -1.387113049910E+01  3.624730580647E+00  3.139568914807E+01  1.620008092910E+01  2.077363187849E+01 -4.710308344859E+00      184
 O   1.146396618469E+01  4.046316492991E+00  2.031380070410E+01  0.000000000000E+00 -5.335293151870E+00  4.610000169726E+00 -3.078789431281E+01  2.171460700568E+01 -1.737495530458E+01 -2.007445684401E+00      185
 O   9.107189607648E+00  3.555562146073E+00  1.902225841298E+01  0.000000000000E+00 -3.944081988698E+01  3.538065311587E+00  1.652591182419E+01  1.982554185224E+01  7.912026487845E+00 -1.533910346937E+01      187
 O   6.661725756181E+00  4.735898690427E+00  1.986500540023E+01  0.000000000000E+00  5.121666723211E+00 -4.835236958465E+00 -4.859384040999E+00 -2.028168560393E+01 -1.629593507421E+00  3.641052726428E+00      188
 Ca  1.142662933773E+01  3.087974789925E+00  2.227451559942E+01  0.000000000000E+00  7.321562638440E+00 -4.878069000170E+00  1.530373352940E+01  2.106746635032E+00  7.850679838275E+00  2.651579649355E+00      190
 O   1.581003586614E+01  2.058720117374E+01  8.513544038317E+00  0.000000000000E+00 -2.626693431653E+01 -1.880547713455E+01  6.822132619543E+00 -7.776737420276E+00  1.266900845442E+01 -3.420375928115E+01      193
 O   4.517821477269E+00  1.218327005198E+01  1.288009565247E+01  0.000000000000E+00 -1.157701402522E+01  2.261279566789E+00  1.284111057858E+01  2.390614095637E+00  4.508244562059E+00 -3.111255872949E+01      194
 Si  1.797025932075E+01  1.915139682360E+00  1.985196042073E+01  0.000000000000E+00  4.645294202024E+01  4.214702839581E+00 -2.985532176778E+01 -1.758483230540E+01 -2.702543541801E+01  2.769196742822E+00      196
 Si  1.549417126993E+01  3.302603726066E+00  1.990645475647E+01  0.000000000000E+00 -2.698436475505E+01  1.162859852149E+01 -4.606506867974E+01  6.809638431485E+01 -3.585470503999E+01 -5.729418741002E+00      197
 O   1.913607022870E+01  3.006920950510E+00  2.019495452086E+01  0.000000000000E+00  6.300101734910E+00  1.490723361735E+00  6.282336286775E+00 -1.726688375901E+01  5.952933850873E+00  1.370697814236E+00      202
 O   1.653720797102E+01  2.237491681295E+00  2.042705412698E+01  0.000000000000E+00  6.685258540897E-01 -1.289962488023E-01  2.026534984308E+01 -2.622042096812E+01  1.640629641833E+01 -2.294351048597E+00      205
 O   1.462443837679E+01  3.896753517471E+00  2.109014350611E+01  0.000000000000E+00  2.380205733040E-01  4.077137731403E+00 -4.391191029760E+00  2.207221811439E+01 -3.044962809135E+00  6.291871491429E-02      206
 Ca  1.321962835136E+01  4.961214399047E+00  1.894441422757E+01  0.000000000000E+00  1.001638352200E+01 -2.547084827510E-01  1.149281849501E+01 -9.726052164642E-01  8.019819847085E+00  3.759063782652E+00      209
 O   2.291537037832E+01  1.914930420517E+01  1.444232334147E+01  0.000000000000E+00 -2.724115802542E+01 -4.633806154437E+00 -7.476464481847E+00 -3.494796785672E+00 -1.186276949152E+01 -2.276416280068E+01      210
 O   1.312468221661E+01  1.710103953155E+01  3.670437648831E+00  0.000000000000E+00 -3.592412955225E+00  3.651002545486E+01  8.096141714048E+00  7.912279938463E+00  2.559420271274E+01 -4.680798738365E+00      212
 Si  1.307525924294E+01  4.010227231191E+00  1.393583324838E+01  0.000000000000E+00 -1.317232992736E+01 -1.207615823701E+01  3.985264074729E+01 -4.196553406327E+01  3.739163636641E+01 -4.039999145825E+00      213
 Si  1.144459687616E+01  5.216575754573E+00  1.646813880619E+01  0.000000000000E+00  9.111567016599E+00  4.677481290995E-01 -2.030156630226E+01  1.476627864474E+00 -1.410865216881E+01  4.153154549634E+00      214
 Si  9.590397110794E+00  6.765287495607E+00  1.435455105909E+01  0.000000000000E+00 -2.303380341163E+01 -4.140814759920E+00  4.877334555688E+01 -8.785958754316E+00  3.258588515845E+01 -1.624857661228E+01      215
 O   1.275361201946E+01  4.884178060102E+00  1.539285043708E+01  0.000000000000E+00 -1.146706226495E+01  3.930317672894E+00  5.528765996753E+00  1.238668847954E+01  4.580810861329E+00 -4.391475437924E+00      216
 O   1.355453944685E+01  2.520788013747E+00  1.452246485949E+01  0.000000000000E+00 -9.897489889525E+00  8.167848191738E+00  2.956212589388E+00  2.723273346640E+01  2.759180383209E+00 -3.081658498293E+00      217
 O   1.377695004853E+01  4.751149533509E+00  1.277574011507E+01  0.000000000000E+00  3.704597740099E+00  2.091650156551E+00  2.885189031924E+00  5.624402815207E+00  3.111295691317E+00  1.277575788742E+00      218
 O   1.132689875981E+01  3.854295217567E+00  1.348845225038E+01  0.000000000000E+00  9.705265078755E+00  2.388971217497E+00 -6.797407256109E-01  8.425451387032E+00 -5.708108120190E-01  3.303646731890E+00      219
 O   1.187608534062E+01  6.321303542116E+00  1.776565688950E+01  0.000000000000E+00 -6.726514826476E+00 -6.884955961428E+00 -2.810487770536E+01 -1.934976931500E+01 -1.878770530088E+01 -3.580333146755E+00      220
 O   1.009892865448E+01  5.771232661826E+00  1.563698466613E+01  0.000000000000E+00  1.552573784020E+01 -2.001571669664E+00  1.816437425970E+00 -5.423199399623E+00  1.173120800581E+00  8.872490180680E+00      222
 O   1.023436925807E+01  7.343043508190E+00  1.310159907726E+01  0.000000000000E+00  1.982197643156E+01 -4.188120119952E-01 -2.079991118023E+01 -7.472524252082E-01 -1.624793815610E+01  1.422204257879E+01      223
 O   2.080429638931E+01  2.075847044739E+01  1.223394841386E+01  0.000000000000E+00  2.978879255925E+01 -1.921900673865E+01  2.522327263623E+00 -1.132666964082E+01  4.289313818244E+00  2.972317633017E+01      224
 Ca  1.625333627044E+01  6.384079410775E+00  5.938316375779E+00  0.000000000000E+00 -1.304989792770E+01  1.390107498475E+00  3.206608853656E+00  1.293044398595E+00  8.776577179149E+00 -5.125814373538E+00      225
 Ca  1.687579989773E+01  3.387915686120E+00  1.643359276529E+01  0.000000000000E+00 -5.777074243599E+00  1.619407867253E+00  1.128396542645E+01  1.977797200704E+01  1.158760262040E+01  3.291883090353E-01      226
 Si  2.073660077975E+01  2.507158948762E+00  1.996419668974E+01  0.000000000000E+00 -3.217452122977E+01 -1.034687856374E+00 -4.430205451810E+01 -3.187423695917E+01 -4.601607730788E+01 -2.654226326311E+00      228
 Si  2.250645583936E+01  4.977572724202E+00  2.084674617217E+01  0.000000000000E+00 -8.514924780632E+00  4.598946737702E+00 -4.588381641331E+01  1.926100945428E+01 -4.953684758852E+01 -1.883177770823E+00      229
 O   2.116249227996E+01  1.465824048256E+00  2.112829007908E+01  0.000000000000E+00 -9.907562305532E+00  2.750222934234E+00  2.410720819773E+01 -8.225468115405E+00  2.414623263247E+01  1.129880893535E+01      230
 O   2.157679543690E+01  3.810631709859E+00  2.002486656683E+01  0.000000000000E+00  2.030483418811E+01  1.030695432302E+01  2.307635100318E+01  5.206093582597E+01  2.486477017782E+01  3.524966463757E+00      236
 O   2.287980796647E+01  4.549117480052E+00  2.235881802585E+01  0.000000000000E+00  4.202568177502E+01  1.935296902578E+00  2.420520544523E+01  1.093263720617E+01  2.476921864722E+01  8.369737834274E+00      237
 H   1.285121031486E+01  1.691179531450E+01  4.596228226454E+00  0.000000000000E+00  1.645992342863E+00 -8.249709872805E+00 -3.152479395684E+00 -2.242077122642E+00 -8.814439521087E+00  2.166075016261E+00      243
 H   1.837613125299E+01  1.837145828988E+01  6.851794610520E+00  0.000000000000E+00  6.512508199384E+00  1.872488612527E+01 -9.835866508287E+00  6.983608585193E+00 -2.637924576222E+01  6.510852099408E+00      247
 H   1.342314950210E+01  5.539598850508E+00  8.298076240206E+00  0.000000000000E+00  1.074927686497E+01 -2.184279454847E+01  1.213254332080E+01 -3.271954871709E+01  1.962586726388E+01  4.436118494816E+00      248
 H   6.042624425055E+00  8.181058035726E+00  7.296165524551E+00  0.000000000000E+00 -4.291958525175E+00 -7.329836172508E+00 -2.082275782667E+01 -6.537014863960E+00 -1.724523718891E+01 -5.810846299795E+00      249