     8448
Lattice="     49.70      0.00      0.00      0.00     49.70      0.00      0.00      0.00     49.70" pbc="T T T" config_type=md Properties=species:S:1:pos:R:3:charge:R:1:forces:R:3:id:I:1
 Si  1.063080468849E+01  1.768346754007E+01  1.569838854152E+01  0.000000000000E+00  9.383379429189E+00  1.521882843350E+01  6.177930179827E+00  1.351042047350E+01  4.183637635620E+00  1.560847841856E+01        1
 Si  1.217079285502E+01  2.020798751673E+01  1.679623705589E+01  0.000000000000E+00  7.668327512493E-01  1.510579119594E+01 -5.647280431314E+00  1.255545361129E+01 -4.092099920656E+00  1.273224090596E+00        2
 Si  1.064361485957E+01  2.263002206417E+01  1.762985761194E+01  0.000000000000E+00  1.516991534197E+01 -2.445226082946E+01 -3.757147777621E+01 -1.904946780393E+01 -2.268290237829E+01  3.225365850134E+01        3
 O   1.114670495117E+01  1.926375143970E+01  1.611373363000E+01  0.000000000000E+00 -1.662174816983E+01 -2.108065908744E+01 -2.066764068022E+00 -1.763353967389E+01 -1.429687855025E+00 -2.872572896113E+01        4
 O   9.288030916112E+00  1.801344740603E+01  1.486740662044E+01  0.000000000000E+00 -1.166019347708E+01 -1.788106310272E+01  8.961628028205E+00 -1.475814317835E+01  5.598547232185E+00 -2.261408083593E+01        5
 O   1.159137423205E+01  1.729442026296E+01  1.443625743157E+01  0.000000000000E+00  8.708191566594E+00 -1.448615058339E+01  1.054364477586E+01 -1.209209651636E+01  8.465859863340E+00  1.299268936264E+01        6
 O   1.060182191720E+01  1.706605691362E+01  1.721363539326E+01  0.000000000000E+00 -8.142819846494E+00 -2.027357170687E+01 -2.918551183380E+01 -2.044888712417E+01 -1.797526158510E+01 -1.310773072995E+01        7
 O   1.265354821882E+01  2.109502037855E+01  1.549443985041E+01  0.000000000000E+00  7.455557588341E+00 -1.634185809396E+00  3.535496495302E+01 -1.200320894396E+00  2.887266387987E+01  1.242933100975E+01        8
 O   1.340051254639E+01  1.961275051222E+01  1.761810853903E+01  0.000000000000E+00  1.029576790264E+01 -5.042814305160E+00  6.010662155959E+00 -4.529953599071E+00  4.571770769521E+00  1.506870177594E+01        9
 O   1.164273678765E+01  2.133886386240E+01  1.780531496420E+01  0.000000000000E+00  1.114601954662E+00 -4.470699613553E-01  2.526923237865E+01 -3.730386736751E-01  1.652332587220E+01  2.042847811910E+00       11
 O   1.916135036033E+01  1.762266291237E+01  2.102521750998E+01  0.000000000000E+00  9.512358998674E+00 -2.236184928703E+00 -2.209069619716E+01 -2.667943814865E+00 -2.013237529346E+01  8.748501174644E+00       13
 Ca  2.033686442841E+00  1.634617098966E+01  1.734668404415E+01  0.000000000000E+00 -3.318736427774E+00  9.310446042025E+00 -2.832984050779E+01  9.880317898506E+00 -1.392571840572E+00  1.941367762499E+01       14
 Ca  2.061970358499E+01  1.455495881663E+01  1.854919850315E+01  0.000000000000E+00 -5.277216715584E+00 -2.087667798054E+01  3.121634418303E-01 -2.660575332614E+01  3.470078580225E-01 -3.725061887779E+00       15
 O   6.925181348280E+00  3.994038579844E+00  1.615482180664E+01  0.000000000000E+00 -1.579496850665E+01  3.684399320831E+00 -1.058403464363E+01  1.501760322732E+01 -4.537119640248E+00 -9.120958073700E+00       16
 O   9.492325270504E+00  1.689991699508E+01  1.915933222646E+01  0.000000000000E+00 -1.592537409034E+01 -5.112309666519E+00  3.266088382327E+01 -5.795794107977E+00  1.618155211300E+01 -2.835316875187E+01       18
 Si  2.014103142793E+01  2.018838943140E+01  1.826667284720E+01  0.000000000000E+00  6.620544429219E+00 -2.426771284053E+01 -2.032180114735E+01 -2.195768873559E+01 -2.240703816206E+01  6.636111445595E+00       19
 Si  1.758999994474E+01  2.134712563340E+01  1.893636796548E+01  0.000000000000E+00 -3.683314458185E+01  1.512157126372E+01 -5.656928412137E+01  1.341387325786E+01 -5.254723114710E+01 -4.470049842707E+01       20
 O   1.847343500387E+01  2.003922178213E+01  1.866609695356E+01  0.000000000000E+00  2.324188504086E+01 -1.171260651488E+01  5.843911780193E+00 -1.091003688480E+01  5.783593897981E+00  2.521184007582E+01       22
 O   2.069808320329E+01  2.166350476641E+01  1.795223524555E+01  0.000000000000E+00  3.785854341205E+00  9.062911480554E+00  4.941455925337E+00  7.510304572728E+00  5.697266356477E+00  3.962438104055E+00       23
 O   2.017621189661E+01  1.955255684618E+01  1.669068711919E+01  0.000000000000E+00 -1.349167254208E+01  6.778816931682E+00  1.739206897249E+01  5.786614678328E+00  2.102406368315E+01 -1.307463936644E+01       24
 O   2.109822334575E+01  1.925208269866E+01  1.925193520941E+01  0.000000000000E+00 -1.670216766862E+01 -3.783169753056E+01  2.645678167101E+01 -3.783140770381E+01  2.899402489323E+01 -1.524069149964E+01       25
 O   1.815073849736E+01  2.239332173589E+01  1.995439588863E+01  0.000000000000E+00  2.480827532955E+01  3.557779742503E+01  3.817438163622E+01  3.170290960125E+01  3.472383840856E+01  3.060700209239E+01       26
 O   2.173686780403E+01  1.725524441575E+01  2.144583138337E+01  0.000000000000E+00 -4.862890788040E+00  3.043857725331E+00 -3.744055802668E+01  3.783085186137E+00 -3.794865518556E+01 -3.860278761009E+00       27
 O   1.774371978086E+01  2.231169946206E+01  1.749470169825E+01  0.000000000000E+00  1.099134720377E+01  3.409169065230E+00 -3.177933760472E+01  2.673144461116E+00 -3.223168196894E+01  1.382098221356E+01       29
 Ca  4.511730187661E+00  1.068033388202E+01  1.430139594926E+01  0.000000000000E+00  3.547089675263E+00 -2.735417472662E+00 -1.450894892416E+00 -3.662833839765E+00 -4.577207923241E-01  8.396801330206E+00       32
 Si  1.389129959925E+01  1.969013860976E+01  1.276886926683E+01  0.000000000000E+00 -6.889231249070E+00  1.970537928735E+01 -8.090023691036E+00  1.277875270257E+01 -8.801166376505E+00 -9.765099171586E+00       37
 Si  1.271112769921E+01  2.216503663373E+01  1.433339877927E+01  0.000000000000E+00 -9.051084977498E+00  2.194914961796E-01 -3.011420932499E+01  1.419379176037E-01 -2.670584738383E+01 -1.578283491823E+01       38
 O   1.303211714574E+01  2.105507025995E+01  1.313519929556E+01  0.000000000000E+00 -3.695679455605E+00  2.308784942324E+01 -1.906567708840E+01  1.440334796968E+01 -1.891605385559E+01 -5.970848000049E+00       40
 O   1.354890555395E+01  1.887933373751E+01  1.404637427327E+01  0.000000000000E+00 -1.610349671884E+01 -5.046032883000E+01  3.520053266531E+01 -3.754288549338E+01  3.395386476626E+01 -2.243895550716E+01       41
 O   1.547894488094E+01  1.991628832707E+01  1.273453784482E+01  0.000000000000E+00  1.999739157404E+00  5.618853684269E+00 -2.664006046016E+00  3.592712844471E+00 -3.238123224513E+00  2.573003647479E+00       42
 O   1.318773936894E+01  1.916412789004E+01  1.139467286345E+01  0.000000000000E+00 -3.421981331133E+00  1.234740160167E+00 -5.089319571346E+00  7.341560376340E-01 -5.890175249125E+00 -4.972746733349E+00       43
 O   1.381708513878E+01  2.326774765476E+01  1.426891100817E+01  0.000000000000E+00  7.237484221785E+00  1.850497300872E+01 -3.363039496001E-01  1.134814667014E+01 -3.256548661261E-01  1.218780624397E+01       44
 O   1.118536878291E+01  2.286186359611E+01  1.399664333072E+01  0.000000000000E+00 -1.395878550139E+01 -2.808065561766E+01  8.244921916113E+00 -1.719172715386E+01  6.588900641316E+00 -2.853047193113E+01       46
 O   8.353655978594E+00  2.198551727879E+01  1.407257947671E+01  0.000000000000E+00  3.558510366770E+00 -8.271818492728E+00  2.355224323563E+00 -5.294659283187E+00  1.398090078939E+00  9.365443268891E+00       47
 O   1.669574617031E+01  1.545819017155E+01  1.043320244737E+01  0.000000000000E+00  1.720769204040E+01 -4.223515322432E+00 -2.242334178111E+00 -2.850578878218E+00 -3.588298267535E+00  1.593218855034E+01       48
 Ca  6.051158350524E+00  2.078557906862E+01  1.290489571596E+01  0.000000000000E+00  3.556035346462E+00  1.136064268937E+01 -1.748783539336E+00  7.053347356283E+00 -8.200117498220E-01  1.221489334489E+01       49
 Si  2.024267203386E+01  2.031993556312E+01  2.297232086207E+01  0.000000000000E+00 -4.532194962164E+01  4.478490916538E+01  6.966417810493E+00  5.063073649669E+01  6.138644494622E+00 -4.549493734651E+01       51
 Si  1.943587228344E+01  2.248470639934E+01  2.106491894101E+01  0.000000000000E+00  5.629303880264E+01 -6.326671333521E+01 -5.041188680394E+01 -5.927176296639E+01 -4.651330471444E+01  6.512352166887E+01       52
 O   1.924485876062E+01  2.104451495950E+01  2.174525073497E+01  0.000000000000E+00  4.574482153283E+00 -2.056227632033E+01  4.740505801953E+01 -2.124695461633E+01  4.195415620837E+01  5.002258489094E+00       54
 O   1.955144229183E+01  1.887352517180E+01  2.337479072723E+01  0.000000000000E+00 -1.335806049503E+01 -8.871416832339E+00  2.675366887215E-01 -1.098721675057E+01  2.237764689115E-01 -1.289488965756E+01       55
 O   2.156907943013E+01  1.992529522728E+01  2.229888948960E+01  0.000000000000E+00  3.432824753626E+01 -2.442920880463E+00  7.445271925490E+00 -2.733933029544E+00  7.201599057869E+00  3.171208437573E+01       56
 O   2.040215333013E+01  2.135068947330E+01  2.428979089704E+01  0.000000000000E+00 -9.091358242834E+00 -2.301080319437E+01 -2.130792279294E+01 -2.617843319126E+01 -1.789754015631E+01 -9.514033327384E+00       57
 O   1.596059242907E+01  2.119490217737E+01  1.888260683567E+01  0.000000000000E+00  9.564245094409E+00 -8.409844098429E+00  7.950167700102E+00 -7.492357281529E+00  6.719908300181E+00  1.270085932444E+01       58
 O   1.459976891910E+01  1.168565438493E+01  1.146435636449E+01  0.000000000000E+00  5.329204009597E+01  2.903254781424E+01 -2.613931984588E+01  2.848274160331E+01 -3.328822110192E+01  4.265494649126E+01       59
 H   4.076827274407E+00  7.014063767326E+00  1.588264334002E+01  0.000000000000E+00  7.620602819799E+00 -1.233124847743E+01 -1.902745664164E+00 -2.792287438512E+01 -4.884051888502E-01  1.311102740582E+01       70
 H   1.370642127216E+01  1.872734989486E+01  1.790174370820E+01  0.000000000000E+00 -3.433791354239E+00  1.297880058799E+00 -5.239478529754E+00  1.240662256381E+00 -4.011592454110E+00 -4.691655894703E+00       73
 H   1.591744838351E+01  1.087046506728E+01  1.587605753735E+01  0.000000000000E+00  3.744780807317E+00  8.133970705890E+00  1.084516556154E+00  1.187947214168E+01  1.087344024990E+00  2.557414226813E+00       83
 Si  2.290639020474E+00  2.125106390940E+01  2.098004094589E+01  0.000000000000E+00  2.397613706432E-01 -8.328664260134E+01  6.988626407335E+01 -8.222445612472E+01  8.099047372265E+00 -5.846690005038E+01       89
 Si  2.394854368226E+00  2.068906894911E+01  1.802430677922E+01  0.000000000000E+00 -5.286739799182E+00 -4.639201527700E+00 -3.009008602470E+00 -4.041670108575E+00 -1.140839291488E+00 -2.573103606420E+00       90
 O   1.646227388584E+00  2.113106677733E+01  1.953265719191E+01  0.000000000000E+00  3.228201811690E+01 -1.589209136054E+01 -6.332252318807E+01 -1.468997168382E+01 -4.441564550252E+00 -2.002618858911E+01       92
 O   2.212348833778E+00  1.960357214553E+01  2.146098386533E+01  0.000000000000E+00  2.717459836199E+00  2.768468458958E+01 -8.803509009698E+00  3.030777069010E+01 -9.467025669669E-01  1.151755631553E+01       95
 O   1.509080056523E+00  1.999538360063E+01  1.673229058863E+01  0.000000000000E+00  8.630497013962E+00  1.549685317729E+01  7.746904239852E+01  1.296788577558E+01  4.423331617347E+00 -2.382773044216E+01       96
 O   3.831510806102E+00  1.994088818942E+01  1.829957497793E+01  0.000000000000E+00 -3.107397528192E+00  2.320155820942E+01 -8.778805037039E-01  2.129186273074E+01 -1.708150583803E-01 -1.768989747814E+01       97
 O   1.112140730734E+01  1.557909777658E+01  2.064500275715E+01  0.000000000000E+00  1.911246347408E+01 -3.330515089058E-01 -1.098600995930E+01 -4.413509317572E-01 -5.918133936677E+00  2.677313481878E+01       98
 O   3.556874512670E+00  1.215958636646E+01  2.025913501511E+01  0.000000000000E+00 -1.704421974097E+00  3.759956991121E+00 -2.278735578971E+01  6.264479237896E+00 -3.779104842894E+00 -7.023095835236E+00      101
 Ca  2.217255779174E+01  2.366230068684E+01  1.855429121431E+01  0.000000000000E+00 -1.221104516039E+01 -3.934404161582E+00 -1.771578355185E+00 -3.085079575943E+00 -2.117053300997E+00 -1.303148806736E+01      102
 O   1.659367725119E+01  3.837349707759E+00  1.052540479190E+01  0.000000000000E+00 -5.011885912472E+01 -5.754332919924E+00 -9.550058571151E+00 -1.578346721100E+01 -1.505600903650E+01 -1.159017296191E+01      105
 Si  5.131600625505E+00  1.610196490316E+01  1.975391628977E+01  0.000000000000E+00 -7.084995400725E+00  4.799462029583E+01 -1.265957880774E+01  5.887987692092E+01 -3.288659401785E+00 -2.223133786260E+01      107
 Si  8.116784267779E+00  1.701690762464E+01  2.010681086557E+01  0.000000000000E+00  3.414695934890E+00 -7.234461799903E+01 -3.810019624776E+00 -8.548083960579E+01 -1.538041390903E+00  7.158939226823E+00      108
 Si  7.475859403965E+00  1.990911827944E+01  1.966806876960E+01  0.000000000000E+00 -8.636474641589E+00  4.013754731620E+01 -3.547058003071E+01  3.965158224376E+01 -1.348241519760E+01 -2.299997710840E+01      109
 O   6.723080586444E+00  1.621765200784E+01  1.957647007909E+01  0.000000000000E+00  1.279651886492E+01  9.306324253314E+00 -1.944191610597E+01  1.123374568669E+01 -6.676871172752E+00  3.086821393773E+01      110
 O   4.314778498417E+00  1.685423274666E+01  1.848111703391E+01  0.000000000000E+00  4.447091868093E+00 -1.278640850275E+01  1.468950862947E+01 -1.402063894184E+01  3.429553304081E+00  1.737107047746E+01      111
 O   4.794943814501E+00  1.679188844165E+01  2.119220695540E+01  0.000000000000E+00  1.724604538089E+00 -1.557403945286E+01 -1.875670402852E+01 -1.965522033829E+01 -4.238447414950E+00  6.148029216874E+00      112
 O   4.608083804922E+00  1.458497248447E+01  1.982392693836E+01  0.000000000000E+00 -9.125826214652E-01  2.122080698328E+01 -5.188739077211E+01  2.884336790197E+01 -1.206125536278E+01 -2.888400686128E+00      113
 O   8.324829762071E+00  1.624795979640E+01  2.153221427240E+01  0.000000000000E+00  3.259663793325E+00  1.420650552004E+01  2.104301949460E+01  1.882682655253E+01  8.135696252897E+00  6.362038357233E+00      114
 O   1.155249967206E+01  1.396368499646E+01  3.570170257418E+01  0.000000000000E+00  2.479310650779E+00  3.954728350972E+01 -2.400840810575E+01  1.011126614385E+02 -7.768736692377E+00  2.996781122581E+00      115
 O   7.878099445438E+00  1.852909580645E+01  2.033692618710E+01  0.000000000000E+00 -3.452454565171E+00  2.768012698656E+01  2.388490256788E+01  3.038079705860E+01  9.252511217441E+00 -8.120088080702E+00      117
 O   6.048522355532E+00  2.051006475189E+01  2.033560562916E+01  0.000000000000E+00  7.252105896928E+00 -8.268506924669E+00 -1.632628307849E+01 -8.198174798377E+00 -4.856009207880E+00  2.459132210986E+01      118
 O   6.915943663716E+00  1.047298373216E+01  2.178575870235E+01  0.000000000000E+00  1.580678202208E+00 -5.844728612101E+00  2.444232746868E+00 -1.215812518003E+01  7.759278072112E-01  2.393659911424E+00      119
 Ca  2.317117042592E+01  1.938769209890E+01  2.111317604620E+01  0.000000000000E+00  1.203580477383E+01 -2.943860822226E+01 -1.035314869902E+01 -3.205861299947E+01 -1.136231576078E+01  1.007055201909E+01      120
 Ca  2.757730504222E+00  1.193920297326E+01  1.764195425559E+01  0.000000000000E+00 -4.953399228582E-01  7.700503105429E+00  2.944761321106E+01  1.137864259744E+01  6.402578337253E+00  1.128024877581E+01      121
 Si  1.190812810085E+00  1.698623123403E+01  1.402557631364E+01  0.000000000000E+00 -2.311303497426E+02  2.361172631792E+01  1.380355756780E+00  1.949626522835E+01 -1.440884935311E+02 -6.280565836423E+01      125
 Si  2.001179027454E+00  1.938161928212E+01  1.540328223968E+01  0.000000000000E+00 -5.280560546380E+00 -7.428973422836E+00 -3.356615614283E+01 -5.904077090637E+00 -5.830066134174E+00  6.419201040735E+00      126
 Si  3.046655257169E+00  2.089548456331E+01  1.318020057208E+01  0.000000000000E+00 -1.209714262430E+01  5.909786194217E+01 -2.345134788877E+01  3.727703329488E+01 -6.998595959907E+00 -3.815531931899E+01      127
 O   7.026891729858E-01  1.840762260012E+01  1.492259269195E+01  0.000000000000E+00  3.965218888780E+01  3.447469789897E+00  1.945292837116E+00  2.794776305990E+00  2.943849874051E+01  3.315689443435E+01      128
 O   2.566047091219E+00  1.715598756519E+01  1.330021975258E+01  0.000000000000E+00  1.510193104230E+01 -1.848218971038E+00 -1.470879235980E+01 -1.432836108810E+00  4.453670975227E-01  1.411952525441E+01      129
 O   1.091557953137E+00  1.587176719499E+01  1.522836796485E+01  0.000000000000E+00  1.217442788616E+01 -2.521699474826E+01 -8.758006493385E+00 -2.419476484731E+01  1.042689458132E+01  1.023032887812E+01      131
 O   3.421058085175E+00  1.864445772816E+01  1.559616314404E+01  0.000000000000E+00 -1.425789154785E+00 -5.001827735224E+00  7.485820624837E+00 -4.184048821069E+00  1.549737851133E+00 -7.114852090431E+00      132
 O   2.955301492536E+00  4.349793602367E+00  8.881396340321E+00  0.000000000000E+00 -5.692610116250E+00  1.528026949341E+00 -2.085942886255E+00  3.119921126466E+00 -1.339295593285E+00 -8.512524773002E+00      133
 O   2.175863972747E+00  2.084322044401E+01  1.452880899329E+01  0.000000000000E+00  6.414543086386E+00 -2.499911564865E+01  1.174723387492E+01 -1.742568415645E+01  2.930804844266E+00  8.714033326382E+00      134
 O   1.874994117196E+00  2.098660609478E+01  1.206365146210E+01  0.000000000000E+00  2.385318908004E+01  2.500329264528E+01 -7.343203969174E+00  1.437254821077E+01 -5.632730393924E+00 -1.245752006173E+01      135
 O   8.326159520312E+00  1.458544259507E+01  1.334815250004E+01  0.000000000000E+00  1.980197773667E+01 -2.070725403752E+00 -2.718949526222E+00 -1.895064773991E+00 -1.695995568145E+00  3.468833486105E+01      136
 Si  8.679231754597E+00  1.449702972142E+01  2.540015109039E+01  0.000000000000E+00 -1.634250311286E+01  2.699692683274E+00 -4.082683878086E+01  4.730113917850E+00 -1.395053101557E+01 -2.729708804286E+01      139
 Si  8.610091447925E+00  1.678270320021E+01  2.310704297657E+01  0.000000000000E+00 -3.168474501725E+01 -4.834809968601E+01 -2.574241157864E+00 -6.656744172575E+01 -9.592076234373E-01 -6.175958464726E+01      140
 O   8.208549167565E+00  1.524341237396E+01  2.392480374011E+01  0.000000000000E+00  6.986292019343E+00  1.723471227878E+01  3.134910082359E+01  2.705018395301E+01  1.075580967203E+01  1.297366051440E+01      142
 O   7.578229948350E+00  1.332499783449E+01  2.594197087131E+01  0.000000000000E+00  1.571294153080E+00 -4.087420840886E+00 -2.020132490901E+01 -7.957656257069E+00 -5.901258858908E+00  2.762847172735E+00      143
 O   7.529838434650E+00  1.790007028830E+01  2.359561540885E+01  0.000000000000E+00 -8.635144524061E+00  1.478077380331E+01  1.753914038635E+01  1.948380361032E+01  5.597094676428E+00 -2.052762423414E+01      148
 O   1.239872272578E+01  1.589391369393E+01  2.082319748751E+00  0.000000000000E+00 -1.524311998978E+00 -2.443731662297E+01  8.717837981516E+00 -6.821450009974E+00  7.136580623476E-01 -1.954014448925E+00      150
 Ca  4.918525766370E+00  1.200926013528E+01  7.341080201703E+00  0.000000000000E+00 -2.982380940760E+00 -1.242506697174E+01  4.680909411664E+00 -7.595256670569E+00  3.114532444585E+00 -6.855122677521E+00      151
 Ca  1.281306325747E+01  2.202894258728E+01  1.936311163453E+00  0.000000000000E+00 -5.789339816188E+00  1.375353728686E-01 -1.634203517770E+01 -3.075926127251E+00 -3.697796686455E+00 -9.953360243867E+00      152
 H   7.211293904859E+00  1.841165800976E+01  1.490798127058E+01  0.000000000000E+00 -1.364518964558E+00 -1.122991546117E+01 -7.537059997278E+00 -9.092900230741E+00 -3.645829293212E+00 -3.483848648347E+00      155
 H   1.072519146698E+01  1.447382757765E+01  3.584943306722E+01  0.000000000000E+00  6.998889710004E+00  1.545806968978E+01 -1.698418371170E+01  3.828724860229E+01 -5.081213470706E+00  9.445120230207E+00      156
 H   1.433814052885E+01  1.100263090515E+01  1.196583271746E+01  0.000000000000E+00 -1.235158199432E+01 -5.054740172956E+01  3.914522455200E+01 -5.497246600491E+01  4.690603185862E+01 -9.478209360883E+00      159
 H   1.568686753421E+01  3.143834111773E+00  1.046616142706E+01  0.000000000000E+00  5.428107731763E+01  6.173226867306E+00  8.389016066653E+00  1.990738631171E+01  1.257360539459E+01  1.082403301099E+01      160
 H   1.619826713766E+01  1.521271416145E+01  1.480662502271E+01  0.000000000000E+00 -1.047602801642E+01  1.486825131628E+01  8.356477277015E+00  1.447135729018E+01  9.141884194086E+00 -9.838633874023E+00      164
 H   1.964274701546E+01  6.034032143301E+00  6.780493298164E+00  0.000000000000E+00 -3.247337357047E+01  6.576911812871E+00 -9.466748138236E+00  7.390531805386E+00 -2.742469176819E+01 -9.975457087109E+00      168
 H   5.462315394640E+00  1.940422330809E+01  3.338693399825E+01  0.000000000000E+00  8.486398803500E+00  3.768206081737E+01  1.889419224048E+01  6.483580700203E+01  3.091210386370E+00  3.014691858075E+01      169
 Si  1.195735713832E+01  6.250527722212E-01  1.968150067335E+01  0.000000000000E+00 -1.879340787232E+01 -1.903091398539E+02 -4.490505851478E+01 -2.507390199841E+01 -2.728175208231E+01 -1.499280247342E+02      177
 Si  1.094123901332E+01  2.983913627754E+00  1.843084251021E+01  0.000000000000E+00 -8.913833650000E+00 -1.005974046937E+00  7.289741902048E+00  1.513282676161E+01  4.327464056596E+00 -2.082585619579E+00      178
 Si  8.158502390253E+00  3.714769487851E+00  2.010528673103E+01  0.000000000000E+00  8.929603938938E+00 -1.853639909482E-01 -5.380881165521E+00 -1.003237535952E+00 -2.183501903647E+00  4.065871242569E+00      179
 O   1.160264196478E+01  1.488190988815E+00  1.810085778403E+01  0.000000000000E+00 -4.617333623618E-01  2.226567150874E+01  2.679459718038E+01  1.975655948559E+01  1.717532513563E+01  2.690187300688E+00      180
 O   1.123142381569E+01  1.380335257071E+00  2.087888292183E+01  0.000000000000E+00  2.145110113660E+01  1.294182338102E+01  2.822212870348E+00  6.219262136136E-01  1.518159231203E+00  9.284685363766E+00      182
 O   1.035994390073E+01  3.952006669711E+00  1.720026989817E+01  0.000000000000E+00  3.918931487656E+00 -1.912203445288E+00 -1.058320498219E+01 -8.486198734826E+00 -6.374400550370E+00  1.498615024401E+00      184
 O   1.203958755831E+01  4.058846357366E+00  1.907976167327E+01  0.000000000000E+00 -7.056346459495E+00 -4.210490687314E+00  1.072260943523E+01 -2.033172015832E+01  6.766111514374E+00 -2.355903456535E+00      185
 O   9.533956402355E+00  2.758746140093E+00  1.936538985248E+01  0.000000000000E+00 -1.044874745815E+01  5.924354525118E+00  1.103923364509E+01  3.718222184986E+01  5.434828479542E+00 -3.061970532594E+00      187
 O   6.773017675579E+00  3.354739788055E+00  1.943959271763E+01  0.000000000000E+00  4.526640741785E+00  1.865023732573E+00 -3.139502559658E-01  1.030938942910E+01 -1.093845258898E-01  2.290404039085E+00      188
 Ca  1.190445527988E+01  3.392306599806E+00  2.120832184546E+01  0.000000000000E+00  1.795002918349E+00 -3.836698548368E-01  2.228017858470E+01  1.132229109123E+01  1.250609979998E+01  1.889660650012E-01      190
 O   1.589099509201E+01  1.801504588440E+01  7.222569171937E+00  0.000000000000E+00  6.138432312455E-01 -6.541077794343E+00 -3.553034671947E+00 -2.622440549517E+00 -7.817336904576E+00  6.958918502391E-01      193
 O   4.546948823751E+00  1.211252558734E+01  1.269779328206E+01  0.000000000000E+00  4.854748611924E+00  9.908743753916E-01 -4.400088686352E+01  1.038752644648E+00 -1.578037945433E+01  1.307179436845E+01      194
 Si  1.853692433884E+01  1.564744756194E+00  1.973033347280E+01  0.000000000000E+00  1.122309329868E+01 -2.606098954012E+00 -1.796224281248E-01 -6.096822860339E+01 -1.687577842664E-01  8.926821433199E-01      196
 Si  1.635825127424E+01  3.803625520008E+00  1.929749781493E+01  0.000000000000E+00  5.452512276756E+00  1.219184102670E+01 -1.418543088761E+01  5.422445521578E+01 -1.202481508838E+01  1.274268831932E+00      197
 O   2.000814089764E+01  1.601597884164E+00  2.059320933905E+01  0.000000000000E+00 -3.428177335643E+01  7.411348877996E+00 -2.241428637470E+01  2.184371087432E+01 -2.177747977605E+01 -1.080441013460E+00      202
 O   1.745496432794E+01  2.724767468093E+00  1.973393004196E+01  0.000000000000E+00  2.236921432110E+01  9.052681152812E+00  6.045261328926E+00  1.811051172866E+01  5.347126529035E+00  3.892903032348E+00      205
 O   1.576499014041E+01  5.010473028213E+00  2.018907561628E+01  0.000000000000E+00  4.208240654731E+00  2.722604085035E+00  2.925224015170E+01  1.097039330148E+01  2.284211948786E+01  1.337474753170E+00      206
 Ca  1.384588469187E+01  5.346689254401E+00  1.898063511284E+01  0.000000000000E+00  3.776950591077E+00  1.053825353724E+00 -9.193921620890E+00  3.741057981860E+00 -6.706729141156E+00  1.458496989475E+00      209
 O   2.239269168890E+01  1.894561529030E+01  1.521896111357E+01  0.000000000000E+00  4.332172311069E+01  2.115655053911E+01  2.488530982705E+01  1.699499937154E+01  3.661544742649E+01  3.665288260878E+01      210
 O   1.388352221390E+01  1.654496774206E+01  4.476430778421E+00  0.000000000000E+00 -1.607628365454E+01  1.591205297414E+01 -5.495329294617E+00  4.308176601136E+00 -1.726843958752E+01 -1.915807749493E+01      212
 Si  1.425586305899E+01  3.715365479725E+00  1.541026435954E+01  0.000000000000E+00 -2.241075569968E+01 -1.248142535042E+01  2.844775593105E+00 -4.692730174426E+01  2.631670057220E+00 -5.923891787281E+00      213
 Si  1.152737621573E+01  4.604048406278E+00  1.622066388138E+01  0.000000000000E+00 -1.192873838877E+01 -1.653826468566E+00 -1.227953321126E+00 -5.826646659092E+00 -8.726572482787E-01 -4.764352957679E+00      214
 Si  1.000059952715E+01  6.292669737613E+00  1.377078819358E+01  0.000000000000E+00 -1.615276015476E+01 -1.339808223802E+01  3.546810976332E+00 -2.932017099150E+01  2.575759330127E+00 -1.016378915372E+01      215
 O   1.263149412316E+01  3.344078184346E+00  1.601843281045E+01  0.000000000000E+00  5.588465053775E+00  7.731795100570E+00 -1.586420862653E+01  2.948323644514E+01 -1.250987911276E+01  9.054533499846E-01      216
 O   1.518118780456E+01  3.902042029891E+00  1.666229045538E+01  0.000000000000E+00  1.014925819681E+01  3.201197119279E+00  9.371922712831E+00  1.137776849480E+01  8.538857198194E+00  2.774627389325E+00      217
 O   1.444920517807E+01  4.691032952597E+00  1.420427039614E+01  0.000000000000E+00  7.994178001508E+00  7.029765595303E+00 -5.537733217699E+00  2.128586440261E+01 -5.633224463659E+00  2.595364379690E+00      218
 O   1.474121900828E+01  2.205028805182E+00  1.488822137664E+01  0.000000000000E+00  3.401159074365E+00  4.009156961913E+00  2.017388367588E+00 -1.177220565725E+01  1.997469207305E+00  1.361493907814E+00      219
 O   1.219903002710E+01  5.945746884987E+00  1.697388996974E+01  0.000000000000E+00  1.830172691275E+00 -1.689926996116E+00 -1.041562835578E+01 -4.824395562718E+00 -7.485647856196E+00  8.920171156198E-01      220
 O   1.062902702236E+01  5.081592316644E+00  1.491647397157E+01  0.000000000000E+00 -9.304210017479E-01  6.203503921402E+00 -1.326988075077E+01  1.820972620591E+01 -9.455714624807E+00 -4.448215442277E-01      222
 O   1.115973514256E+01  6.920582879570E+00  1.294354862806E+01  0.000000000000E+00  9.004130708317E+00  1.073422746352E+00  2.993960018098E+00  2.007619843250E+00  2.581347804184E+00  5.583809295592E+00      223
 O   2.135607482156E+01  2.117098358736E+01  1.326027353159E+01  0.000000000000E+00 -3.708198485203E+01  4.063622340810E+01  1.327646131602E+01  2.545216831608E+01  2.138214574193E+01 -3.676059852986E+01      224
 Ca  1.581977207994E+01  7.722869043644E+00  6.045831084365E+00  0.000000000000E+00 -9.335642440459E+00 -5.600122402682E+00 -2.970588082971E+00 -4.384043534475E+00 -7.772963842393E+00 -4.557457821872E+00      225
 Ca  1.698482270891E+01  4.560047301068E+00  1.535306725931E+01  0.000000000000E+00 -1.776894230915E+00  2.232508933615E+00  8.135448719110E+00  7.516557954730E+00  9.000100880021E+00 -4.770565981661E-01      226
 Si  2.150586164707E+01  2.315354599957E+00  2.023265469459E+01  0.000000000000E+00 -1.305120565148E+01  1.161484925156E+00 -5.774879191060E+01  1.972716571904E+01 -6.138282632020E+01 -3.754865396708E-01      228
 Si  2.283454346178E+01  4.821672936239E+00  2.160311817801E+01  0.000000000000E+00  4.030617176218E+01 -1.600056540005E+01  7.513779511315E+00 -7.168924765807E+01  7.942081480995E+00  8.510928973658E+00      229
 O   2.238495542305E+01  1.282948984229E+00  2.100626017102E+01  0.000000000000E+00  4.019435104851E+01  9.347388171407E+00  1.919179174534E+00 -4.538313760143E+01  2.045139873591E+00  6.449977558847E+00      230
 O   2.181123571655E+01  3.645630384017E+00  2.114333373557E+01  0.000000000000E+00 -3.309655411797E+01 -7.904637059859E-01  4.334424001677E+00 -4.497318442979E+00  4.471345189855E+00 -5.587691701946E+00      236
 O   2.336181861531E+01  4.471491716972E+00  2.326984863598E+01  0.000000000000E+00 -7.828250808942E+01  4.871069657282E+00 -2.620834248603E+01  2.521647633680E+01 -2.631192634489E+01 -1.497821233274E+01      237
 H   1.291347822643E+01  1.653119549672E+01  4.078911330764E+00  0.000000000000E+00  3.213407896430E+01 -5.743881623010E+00  3.603845495562E+00 -1.469600385916E+00  1.105426231679E+01  4.113645697554E+01      243
 H   1.914653096694E+01  1.923480895930E+01  7.426693370600E+00  0.000000000000E+00  4.751487663574E+00 -7.568215745359E-01 -2.346225884169E+00 -2.922140678510E-01 -6.048733171686E+00  4.773395119937E+00      247
 H   1.329653813230E+01  8.196833103884E+00  8.091705437274E+00  0.000000000000E+00  3.339700562990E+01 -2.021175023074E+00 -8.986855405810E+00 -1.995252644114E+00 -1.476747596896E+01  2.058804168378E+01      248
 H   6.047029048575E+00  1.049070942744E+01  1.106737373833E+01  0.000000000000E+00 -6.144700087661E-01 -8.481401453033E+00 -6.904941690518E+00 -8.947616017279E+00 -3.772745365656E+00 -1.066015437012E+00      249