     8448
Lattice="     49.70      0.00      0.00      0.00     49.70      0.00      0.00      0.00     49.70" pbc="T T T" config_type=md Properties=species:S:1:pos:R:3:charge:R:1:forces:R:3:id:I:1
 Si  1.064452051455E+01  1.774920968624E+01  1.608530164750E+01  0.000000000000E+00  2.852857192607E+00 -3.568071432651E+01 -1.807601450260E+01 -3.233580892254E+01 -1.196188367560E+01  4.756997785598E+00        1
 Si  1.190908274004E+01  2.033003664020E+01  1.666088260180E+01  0.000000000000E+00  1.465725991259E+01 -5.009784600368E+00 -7.070125662286E+00 -4.105621380041E+00 -5.053676537255E+00  2.502145946690E+01        2
 Si  1.046699347208E+01  2.261980307193E+01  1.751108471939E+01  0.000000000000E+00  6.898600810795E+01 -5.058373319256E+00  1.698620605423E+00 -3.915931692867E+00  1.015325496588E+00  1.490829169124E+02        3
 O   1.076695906266E+01  1.935274498309E+01  1.606655980808E+01  0.000000000000E+00  2.073074682023E+00  4.415070576506E+01  5.964011786668E+00  3.665371270913E+01  3.996765426036E+00  3.726185399110E+00        4
 O   9.094832519870E+00  1.776632167041E+01  1.561802509515E+01  0.000000000000E+00 -6.672824746935E+00 -1.703844980932E+01 -1.715902407101E+00 -1.497816721103E+01 -9.992201266136E-01 -1.303504497145E+01        5
 O   1.152640642112E+01  1.724648369699E+01  1.472645999950E+01  0.000000000000E+00 -1.792907820997E+00 -5.650018000606E+00  1.525756952040E+01 -4.824448017590E+00  1.194210606600E+01 -2.682653584760E+00        6
 O   1.103265473084E+01  1.707584559513E+01  1.758463158389E+01  0.000000000000E+00 -3.049120048963E+01 -2.555776498140E-01 -1.247878357104E+01 -2.631927530627E-01 -7.829229173399E+00 -4.719290544965E+01        7
 O   1.271363434550E+01  2.122649600376E+01  1.557415257204E+01  0.000000000000E+00  4.431687172092E+00  3.302609404268E+01 -1.067670321945E+01  2.423166910770E+01 -8.715703799593E+00  7.399079404987E+00        8
 O   1.316046901982E+01  1.947984623915E+01  1.709887342902E+01  0.000000000000E+00  2.075446940282E+01 -2.756674972223E+01  2.379614390477E+01 -2.419733495650E+01  1.831514900383E+01  3.072032403505E+01        9
 O   1.151167112447E+01  2.123487368167E+01  1.788438560038E+01  0.000000000000E+00 -9.343795805263E+00  3.685799269702E+01  2.195251763292E+01  3.104245232306E+01  1.413021218571E+01 -1.723592704192E+01       11
 O   1.931664183484E+01  1.780311711985E+01  2.115985757487E+01  0.000000000000E+00  1.116875071841E+01 -1.936463105289E+01  1.846638502990E+01 -2.301579169033E+01  1.685779520702E+01  1.029364103876E+01       13
 Ca  2.861684459881E+00  1.655263264748E+01  1.659100790560E+01  0.000000000000E+00 -4.658488775023E+00 -1.940038531537E+01  1.399544522148E+01 -1.944536274041E+01  3.585729200391E+00 -1.038160906380E+01       14
 Ca  2.033384389188E+01  1.435946668433E+01  1.863854807602E+01  0.000000000000E+00  9.892719767468E+00  1.273986773723E+00 -1.925999239532E+00  1.653631311820E+00 -2.101181256867E+00  6.986095726594E+00       15
 O   7.430132515998E+00  4.125527176363E+00  1.677950298845E+01  0.000000000000E+00 -8.328315667928E+00 -1.096331987103E+01 -8.548458861232E+01 -4.797154432496E+01 -3.785343474729E+01 -4.410508140121E+00       16
 O   9.243174760499E+00  1.673305020928E+01  1.953063973284E+01  0.000000000000E+00  2.249470089341E+00 -1.582417313083E+00  1.070180530235E+01 -1.846980799215E+00  5.064793474028E+00  4.072247569101E+00       18
 Si  2.021207316402E+01  2.023395711179E+01  1.838225205649E+01  0.000000000000E+00 -2.663529674379E+01 -4.064136951862E+01  1.502387696231E+01 -3.692208569411E+01  1.651939596064E+01 -2.666413522255E+01       19
 Si  1.793616355182E+01  2.202756452601E+01  1.868544922928E+01  0.000000000000E+00 -9.707267498606E+00 -7.135361104556E+01  1.953956083904E+01 -6.052753925399E+01  1.875602532426E+01 -1.192158292820E+01       20
 O   1.871025242240E+01  2.049771744968E+01  1.906522914235E+01  0.000000000000E+00  3.681865294367E+00  3.971493355130E+01 -5.445512528400E+00  3.693944510590E+01 -5.344122182586E+00  4.033608568603E+00       22
 O   2.117574343168E+01  2.139430581923E+01  1.795998295010E+01  0.000000000000E+00  1.993412550727E+01  2.555025055634E+01 -4.321579501906E+00  2.144879428386E+01 -5.095364455869E+00  2.013987271415E+01       23
 O   1.977690158631E+01  1.958636592415E+01  1.693388297344E+01  0.000000000000E+00  1.299897421372E+01 -1.402093498403E-02  8.594126159414E+00 -1.212215033239E-02  1.003698841794E+01  1.287373881481E+01       24
 O   2.092993296420E+01  1.922114039092E+01  1.983683007642E+01  0.000000000000E+00  2.254008474337E+00  4.930950904293E+01 -6.221053721028E+01  5.088898640470E+01 -6.563863119569E+01  2.069983377475E+00       25
 O   1.830292442272E+01  2.304530704877E+01  1.985146296711E+01  0.000000000000E+00  3.631444368298E+01 -1.268053111018E+01  5.923175880462E+01 -1.092313906707E+01  5.461131034131E+01  4.572370434642E+01       26
 O   2.174588022656E+01  1.710823866368E+01  2.110245834896E+01  0.000000000000E+00  1.583068308742E+01 -5.231838420749E+00 -4.026162425856E+00 -6.453303261237E+00 -4.148921629771E+00  1.245454778776E+01       27
 O   1.838911825154E+01  2.269403234932E+01  1.736013835989E+01  0.000000000000E+00  4.622431889412E+01 -6.595821212955E+00 -2.243245970274E+01 -5.045571764925E+00 -2.376208907987E+01  5.704548602925E+01       29
 Ca  5.048201773996E+00  1.046208720118E+01  1.435656378291E+01  0.000000000000E+00 -1.567036198246E+00  4.237564068957E+00  1.027431027195E+01  5.814982963754E+00  3.612758047519E+00 -3.247585989510E+00       32
 Si  1.417335186654E+01  1.968079340234E+01  1.306245551741E+01  0.000000000000E+00 -1.660272957592E+01  2.192084637999E+01  3.220875720382E+00  1.454921429684E+01  3.494795051553E+00 -2.305417192598E+01       37
 Si  1.276556865864E+01  2.201817937636E+01  1.406334318843E+01  0.000000000000E+00 -7.354102355642E+01 -1.593127288027E+02  2.291531567118E+01 -1.017554422253E+02  2.080067531707E+01 -1.268442864932E+02       38
 O   1.260451614625E+01  2.066278392132E+01  1.314293559855E+01  0.000000000000E+00  1.674158244348E+01  2.854192406947E+00 -7.728556731850E+00  1.815460449726E+00 -7.411945176431E+00  2.744474254440E+01       40
 O   1.405515673690E+01  1.892088967975E+01  1.459334357355E+01  0.000000000000E+00  1.608940106391E+01  1.022650939877E+01 -1.662730085456E+01  7.887523670416E+00 -1.601410385802E+01  2.165936589980E+01       41
 O   1.534019526076E+01  2.086655723820E+01  1.311261512673E+01  0.000000000000E+00 -1.732136684993E+01 -4.231681147466E+01 -9.061536981729E+00 -2.659202742089E+01 -1.060091715641E+01 -2.356145320669E+01       42
 O   1.386733754589E+01  1.868096042422E+01  1.182700168158E+01  0.000000000000E+00  9.465940785757E+00  2.219518498156E+01  5.665667826112E+00  1.405187335869E+01  6.643080831715E+00  1.275175314740E+01       43
 O   1.371672709544E+01  2.311695904755E+01  1.386276016562E+01  0.000000000000E+00  5.873884523141E+01  1.080741145037E+02 -9.472683315320E+00  6.480980160044E+01 -9.372896187009E+00  9.899325620949E+01       44
 O   1.117245530434E+01  2.262891242724E+01  1.403875370326E+01  0.000000000000E+00 -8.825230130208E+00  7.382831423758E+00 -2.292622095778E+00  4.580235675227E+00 -1.824536453608E+00 -1.787479603424E+01       46
 O   8.435556617976E+00  2.198169219941E+01  1.403187469397E+01  0.000000000000E+00  5.407015277030E+00 -2.249426191531E+01 -7.472304667404E-01 -1.435907034206E+01 -4.492133122865E-01  1.408980473012E+01       47
 O   1.691822298545E+01  1.594304500167E+01  1.087106738567E+01  0.000000000000E+00 -7.232496117821E+00 -1.772462337026E+01 -6.462114176265E-01 -1.208587036062E+01 -1.005673911429E+00 -6.815610077958E+00       48
 Ca  6.313866172164E+00  2.089234835836E+01  1.298516327176E+01  0.000000000000E+00  1.993799403414E+00 -5.215714714736E+00  2.069613169571E+00 -3.241708686264E+00  1.006322393284E+00  6.597408078819E+00       49
 Si  2.016601930291E+01  2.017359448084E+01  2.332923553794E+01  0.000000000000E+00 -3.303205374087E+01  1.922947999111E+01  9.515300314984E+00  2.223743856904E+01  8.225118629065E+00 -3.304446192520E+01       51
 Si  1.940589714150E+01  2.248446084380E+01  2.120336723547E+01  0.000000000000E+00 -3.891881664618E+00  1.815323893683E+01  7.931941919731E+00  1.711892468158E+01  7.259528513431E+00 -4.509292214563E+00       52
 O   1.927292347307E+01  2.114916430870E+01  2.218587316347E+01  0.000000000000E+00  9.457683040903E+00 -4.308399287502E+01  1.199323530174E+01 -4.519592298539E+01  1.041855348499E+01  1.037839915107E+01       54
 O   1.963253475360E+01  1.861147488714E+01  2.384329103337E+01  0.000000000000E+00 -8.819003152636E+00  1.606205625137E+01 -2.077365854558E+01  2.057721293547E+01 -1.710500336487E+01 -8.360339495886E+00       55
 O   2.168976506163E+01  1.989796040437E+01  2.301058906514E+01  0.000000000000E+00  4.098745283108E+01 -4.787520640487E+00 -2.826152604804E+01 -5.536430260205E+00 -2.663929456694E+01  3.760145447363E+01       56
 O   2.024388075920E+01  2.098140619251E+01  2.477696684719E+01  0.000000000000E+00  9.161747725774E+00 -1.662495614059E+00 -3.167687288710E+01 -1.963242994068E+00 -2.588141000090E+01  9.495528686139E+00       57
 O   1.636868785173E+01  2.187235649282E+01  1.858306085396E+01  0.000000000000E+00 -1.386288427072E+01 -1.512692225504E+01  1.217070847265E+01 -1.285204531532E+01  1.072043671862E+01 -1.852402278877E+01       58
 O   1.489207638255E+01  1.191240390167E+01  1.152485866556E+01  0.000000000000E+00  2.540039804745E+01 -1.906359124918E+01  3.300870467288E+01 -1.844339703542E+01  4.265285723169E+01  2.031817411029E+01       59
 H   4.337472929808E+00  5.489265533702E+00  1.706949721337E+01  0.000000000000E+00  3.785401715672E+00 -7.010592764967E+00 -1.626076528651E+01 -2.180023774236E+01 -4.131968760801E+00  4.790594778415E+00       70
 H   1.320482310227E+01  1.869150572768E+01  1.772704184118E+01  0.000000000000E+00 -2.774746283910E+00 -9.574179129695E-01 -6.716548831143E+00 -9.080160608768E-01 -5.003138141582E+00 -3.927669886743E+00       73
 H   1.519137359991E+01  1.152492922452E+01  1.582802842292E+01  0.000000000000E+00 -3.578801408457E+00 -4.324445089798E+00 -8.939308558833E+00 -5.939076801359E+00 -8.579740471369E+00 -2.715056190925E+00       83
 Si  2.226192583110E+00  2.128623111465E+01  2.078160918217E+01  0.000000000000E+00  6.350064790167E+00 -3.084889697130E+01  5.793417812679E+01 -3.011757774805E+01  6.847801003335E+00 -6.956425930133E+01       89
 Si  2.329109260094E+00  2.111111595255E+01  1.786278058966E+01  0.000000000000E+00 -1.025390181606E+01 -4.159420157373E+01 -2.060304607986E+01 -3.519416492163E+01 -2.860585311057E+00 -2.384410046394E+01       90
 O   1.425225628934E+00  2.109570467045E+01  1.930287128205E+01  0.000000000000E+00  4.890017784023E+01 -7.449897888931E+00 -1.735444747765E+01 -6.816763045409E+00 -2.264025787497E+00  2.278189428134E+01       92
 O   1.753921378179E+00  1.985409343573E+01  2.167077950527E+01  0.000000000000E+00  6.923901540803E+00  2.945298866238E+01 -3.299701363850E+01  3.214799130163E+01 -1.921107275298E+00  2.920108017011E+01       95
 O   1.440884134648E+00  1.991518266033E+01  1.680083625220E+01  0.000000000000E+00  1.458221137618E+01  3.325454261103E+01  5.398884402608E+01  2.805418029947E+01  1.359452017654E+00  5.090088135960E+00       96
 O   3.853518159039E+00  2.046199927188E+01  1.789081895968E+01  0.000000000000E+00 -1.563147227541E+01  2.543178498205E+01  5.187345338246E-01  2.223611949594E+01  1.533197810764E-01 -8.258535458212E+01       97
 O   1.126041935159E+01  1.552503364352E+01  2.081157527095E+01  0.000000000000E+00 -2.373127289463E+01 -1.901270693517E+00 -6.030989592416E+00 -2.548686145045E+00 -3.263158652409E+00 -3.271892445468E+01       98
 O   3.445470521702E+00  1.231060423504E+01  2.015571707892E+01  0.000000000000E+00 -7.647930455086E-01  6.257880562680E+00 -1.508941794139E+01  1.024580660111E+01 -2.484928638304E+00 -3.148709467991E+00      101
 Ca  2.181177812765E+01  2.349040438459E+01  1.852623556166E+01  0.000000000000E+00  5.898601001139E+00 -7.184747595593E+00  1.266836536035E+01 -5.666412728696E+00  1.491504162086E+01  6.352555119951E+00      102
 O   1.685058457235E+01  4.099002585992E+00  1.069977556683E+01  0.000000000000E+00  1.035826457682E+01 -8.004869556382E+00 -8.697687553887E+00 -2.089540221022E+01 -1.369758821531E+01  2.519708031759E+00      105
 Si  5.200607708083E+00  1.622027021444E+01  1.965458866423E+01  0.000000000000E+00 -8.229747092428E+00 -1.826165055017E+00 -1.139875669554E+01 -2.212819053865E+00 -3.016113079044E+00 -2.566790827699E+01      107
 Si  7.987698320529E+00  1.696504194745E+01  2.050660905077E+01  0.000000000000E+00 -6.491961672545E+00  3.449126745551E+00 -1.829109263023E+01  4.169155252117E+00 -7.124714257798E+00 -1.378825259498E+01      108
 Si  7.141395486043E+00  1.975033685728E+01  1.964857389619E+01  0.000000000000E+00  3.938215009869E+00  2.159765765877E-01 -3.746008307272E+01  2.148637643801E-01 -1.361509845832E+01  1.089157899367E+01      109
 O   6.772436434607E+00  1.640654901108E+01  1.940942333344E+01  0.000000000000E+00  7.646752090565E+00  4.723854727471E+00  1.547672242656E+01  5.588457152643E+00  5.400218082180E+00  1.852462022506E+01      110
 O   4.326695352119E+00  1.692459870600E+01  1.835160515410E+01  0.000000000000E+00  4.212660532266E+00 -1.094506980224E+01  2.124512500199E+01 -1.186790912351E+01  5.008890657218E+00  1.647853227251E+01      111
 O   4.806078210139E+00  1.688223750933E+01  2.112154156744E+01  0.000000000000E+00  5.422287594377E-01 -9.362588057443E+00 -3.533944816574E+01 -1.171363053771E+01 -8.041276307668E+00  1.904678679990E+00      112
 O   5.032867319224E+00  1.448069783699E+01  1.935901973838E+01  0.000000000000E+00 -2.467272565407E+00  6.362383868639E+00  2.370193379551E+01  8.505772047914E+00  6.161917783746E+00 -7.098901329007E+00      113
 O   7.942793947777E+00  1.629955663660E+01  2.201699795138E+01  0.000000000000E+00  3.621274441646E+00  5.993344718222E-01  1.056297185406E+01  8.095647097953E-01  3.810669787871E+00  7.431285294115E+00      114
 O   1.255603637171E+01  1.367672227295E+01  3.611680092734E+01  0.000000000000E+00  1.498622865498E+01  2.410367152471E+01  1.845116803881E+01  6.365176456043E+01  6.414564165360E+00  1.632382076360E+01      115
 O   7.588481605919E+00  1.860644848685E+01  2.073502062478E+01  0.000000000000E+00 -1.034488912543E-01 -1.020538083555E+01 -1.258027200817E+01 -1.137287334864E+01 -4.604054389864E+00 -2.536497505172E-01      117
 O   5.638294584951E+00  2.042506716572E+01  2.000072029710E+01  0.000000000000E+00  1.248026468291E+01 -3.564240625922E+01 -1.076172437736E+01 -3.490190717722E+01 -3.033779352956E+00  4.521052253544E+01      118
 O   6.821178704909E+00  1.018823204449E+01  2.140078557726E+01  0.000000000000E+00 -1.208012471677E+00 -7.064798485910E-01  1.007323679102E+01 -1.483988948065E+00  3.210692805659E+00 -1.804308596289E+00      119
 Ca  2.318140791147E+01  1.907453740692E+01  2.085737274616E+01  0.000000000000E+00 -9.681640038807E+00  3.430157856891E+00 -5.394471762298E+00  3.750763621318E+00 -5.995551400968E+00 -7.966418855395E+00      120
 Ca  3.128723255300E+00  1.223856673344E+01  1.785957426172E+01  0.000000000000E+00 -3.357869724161E+00 -1.541180415331E+00  2.294947435456E+00 -2.249023654306E+00  1.256386044976E+00 -5.950356235513E+00      121
 Si  9.258153436053E-01  1.728208411834E+01  1.384489662640E+01  0.000000000000E+00 -2.328607044960E+02  4.738514790842E+00  1.382778816235E+01  3.796084256543E+00 -1.509115376272E+02 -4.286043834117E+01      125
 Si  2.183246469127E+00  1.943424501605E+01  1.550253112111E+01  0.000000000000E+00 -3.801045188922E+00  2.722101731285E+01 -3.695175423860E+01  2.171397281923E+01 -9.440057124220E+00  1.537193282507E+01      126
 Si  3.173287702155E+00  2.096093428034E+01  1.305528619236E+01  0.000000000000E+00 -2.263433335776E+01  6.411149490340E+01 -1.844179540661E+01  3.993113584489E+01 -7.180086212962E+00 -7.566199337364E+01      127
 O   9.349953583213E-01  1.863986298346E+01  1.484992402939E+01  0.000000000000E+00  2.803532687374E+01 -2.865996191012E+01 -1.320725122041E+01 -2.283269235553E+01  1.394322158591E+01 -5.319808622361E+00      128
 O   2.199080339471E+00  1.709554764192E+01  1.302695231911E+01  0.000000000000E+00  3.282724198971E+01  8.242901372249E-01 -2.434464624056E+01  6.281160767500E-01 -1.274823714321E+00  5.169820144745E+01      129
 O   1.177619317975E+00  1.590291776622E+01  1.504209455740E+01  0.000000000000E+00  7.122146899259E+00  4.366925879552E+01  1.470783589589E+01  4.130544656712E+01  7.862754619759E+00 -3.145162812174E+01      131
 O   3.473099879621E+00  1.849025710233E+01  1.573132919696E+01  0.000000000000E+00 -8.822793081141E-01 -4.574371963713E+00 -1.032025977436E+01 -3.891830753476E+00 -2.360727635627E+00 -3.916971212778E+00      132
 O   2.738090138434E+00  4.799352834960E+00  9.361248195791E+00  0.000000000000E+00  1.102263283139E+00  2.293351755327E+01  1.150268574083E+01  4.473235396548E+01  2.748564088548E+00 -3.526003544579E-02      133
 O   2.591205667880E+00  2.085246109250E+01  1.454866825777E+01  0.000000000000E+00  2.006092949078E+00 -2.658169551096E+01  2.308928884178E+01 -1.854592932713E+01  5.114567573319E+00 -2.362533351558E+01      134
 O   1.890371330775E+00  2.143845674268E+01  1.188473301955E+01  0.000000000000E+00  4.994752854765E+01 -6.393619702155E+00  1.402578543143E+01 -3.544399865192E+00 -1.378271244920E-01  2.100941875365E+01      135
 O   8.706978687066E+00  1.451599452779E+01  1.301353634263E+01  0.000000000000E+00 -1.076014055339E+01  1.841787338504E+01 -1.657879139246E+01  1.651155655862E+01 -1.109238715065E+01 -1.793895988551E+01      136
 Si  8.660280684507E+00  1.420376559017E+01  2.548187613601E+01  0.000000000000E+00 -2.321999023414E+01 -3.759867235377E+01 -3.901423217435E+01 -6.745286703833E+01 -1.325939265684E+01 -3.808321119220E+01      139
 Si  8.245305239179E+00  1.637072129645E+01  2.371927800897E+01  0.000000000000E+00 -1.896317745745E+01  5.982470904967E+01 -4.481291650218E+01  8.667907052227E+01 -1.557788458310E+01 -3.765062469439E+01      140
 O   7.826918762128E+00  1.493422820506E+01  2.429588565491E+01  0.000000000000E+00 -4.984249443808E+00  1.116071590930E+01 -1.154121530955E+01  1.815691268648E+01 -3.718002131188E+00 -9.510245460185E+00      142
 O   7.816071809820E+00  1.277025600817E+01  2.555988902667E+01  0.000000000000E+00 -6.111741455524E+00 -9.167449864082E+00  1.118225491920E+01 -1.834881000299E+01  3.419471319027E+00 -9.985643036793E+00      143
 O   7.369452338279E+00  1.784648037496E+01  2.419729873334E+01  0.000000000000E+00 -7.906213195750E-02 -3.164305217913E+01 -1.876627868181E+01 -4.290349527336E+01 -5.715398145740E+00 -1.914634523183E-01      148
 O   1.262453000458E+01  1.561242866076E+01  1.786686784115E+00  0.000000000000E+00 -1.800097652045E+01 -1.010592735964E+01  2.193773097181E+01 -6.637102513877E+00  6.233749292531E+00 -2.226134055269E+01      150
 Ca  4.954745616467E+00  1.181409479014E+01  7.532204488911E+00  0.000000000000E+00 -4.984766670669E+00 -3.749047360682E+00 -7.219055222152E+00 -2.390245876717E+00 -4.748753471796E+00 -1.188567698779E+01      151
 Ca  1.189449261725E+01  2.178427808604E+01  1.556301814357E+00  0.000000000000E+00  1.055337107930E+01  4.936049908053E+00 -4.045817815865E+01 -6.645557823173E+00 -3.976853852482E+00  1.932806868981E+01      152
 H   6.785160538544E+00  1.872233488242E+01  1.464226535563E+01  0.000000000000E+00  3.515650666241E+00 -1.886349212710E+01 -4.276483115047E+00 -1.475266087235E+01 -1.981703224959E+00  9.700756338642E+00      155
 H   1.251850204887E+01  1.465574780624E+01  3.621459321626E+01  0.000000000000E+00  8.760604609046E+00 -9.248993463212E+00  3.192739274240E+00 -2.285441455177E+01  1.103652135685E+00  1.025627597289E+01      156
 H   1.571618616484E+01  1.174017689007E+01  1.214333642447E+01  0.000000000000E+00 -4.140314627952E+01  7.085255634527E+00 -2.552097350714E+01  7.328564435535E+00 -3.302983271860E+01 -3.092863981304E+01      159
 H   1.664029580416E+01  3.095305382573E+00  1.044072860690E+01  0.000000000000E+00  3.539552998519E+00  5.157387815912E+00  1.052914942117E+01  1.516481531444E+01  1.678121973391E+01  4.557101868713E-01      160
 H   1.537731681076E+01  1.556447862795E+01  1.553250990475E+01  0.000000000000E+00  1.213206556621E+01  1.756345629880E+01  3.014921622577E+00  1.752738176740E+01  2.984798029056E+00  1.227972848202E+01      164
 H   1.937100369209E+01  6.091455352492E+00  6.774272489237E+00  0.000000000000E+00  6.108984236885E+01  1.037679366433E+01 -6.622562556833E+00  1.153997259751E+01 -1.893718977844E+01  1.921046803747E+01      168
 H   5.376724225299E+00  1.989292500711E+01  3.392543186115E+01  0.000000000000E+00 -1.046686956626E+01 -4.956479530603E+01  4.625608473275E+01 -8.452789548374E+01  7.330966702737E+00 -3.872555902365E+01      169
 Si  1.180585938236E+01  5.371785799703E-01  1.940684849556E+01  0.000000000000E+00 -2.116428310439E+00 -1.911596305361E+02 -1.140636426746E+01 -1.774259819134E+01 -6.938887199352E+00 -1.310870949488E+02      177
 Si  1.080899404058E+01  3.038342754265E+00  1.848994391336E+01  0.000000000000E+00 -2.141236217222E+01  1.647452410431E+01 -2.307359826857E+01  1.018550504617E+02 -1.348854206093E+01 -5.914369077337E+00      178
 Si  8.066860377870E+00  3.941857381607E+00  2.018036643354E+01  0.000000000000E+00  8.246922014532E+00  1.341003083148E+00 -1.918284728373E+01  7.980622119512E+00 -7.668114015546E+00  3.974204088992E+00      179
 O   1.099709036266E+01  1.519462088793E+00  1.835723946472E+01  0.000000000000E+00  8.841328544645E-01  2.157942856742E+01 -1.569482446419E+01 -5.129049525052E+01 -9.402143671466E+00  5.216551329624E+00      180
 O   1.160633990830E+01  1.214396255099E+00  2.085836113619E+01  0.000000000000E+00  8.831567798948E+00 -6.513866790625E-01 -2.232218411330E+00 -1.771323033419E+01 -1.242086349082E+00  3.282662113241E+00      182
 O   1.052069784493E+01  3.621053865017E+00  1.686239421009E+01  0.000000000000E+00  3.295647392147E+00 -3.027279919438E+00  1.686946545496E+01 -1.303878770014E+01  1.052510969949E+01  1.032362601986E+00      184
 O   1.190616270676E+01  3.870792263032E+00  1.927804172738E+01  0.000000000000E+00  7.518386695075E+00 -1.338107681089E+00  7.905226717278E+00 -7.843695072065E+00  4.882286119137E+00  2.476043791185E+00      185
 O   9.451291783733E+00  3.433841682629E+00  1.935322409228E+01  0.000000000000E+00 -1.757066004880E+01  5.777479243733E-01  9.867876635363E+00 -4.193240876305E-01  4.819051385029E+00 -6.000955321922E+00      187
 O   6.668145130269E+00  3.690662164702E+00  1.943832201847E+01  0.000000000000E+00  5.565355345510E+00  3.882218181835E+00  1.589446893985E+01  1.025995870661E+01  5.452457550543E+00  2.890823493195E+00      188
 Ca  1.245817026485E+01  3.172173691755E+00  2.174860242930E+01  0.000000000000E+00 -2.863327807983E+00 -4.504859236644E-01 -6.879594640818E+00 -8.112981981124E-01 -3.940812365626E+00 -8.015313078076E-01      190
 O   1.411740280856E+01  1.762969507732E+01  7.233621010169E+00  0.000000000000E+00  1.314433440882E+01  2.059120193014E+01  1.512252022709E+01  8.448753665518E+00  2.951367084705E+01  1.641453536208E+01      193
 O   4.382251111362E+00  1.185128625795E+01  1.266646329158E+01  0.000000000000E+00 -1.169778459040E+01  4.207475276465E+00  2.342798207292E+01  4.496881602522E+00  8.105443335888E+00 -3.163529205462E+01      194
 Si  1.880777899997E+01  1.607902546028E+00  1.985623344660E+01  0.000000000000E+00  5.552660203348E+00 -3.278653048108E-01 -1.003521615368E+01 -4.170873598953E+01 -9.505333835999E+00 -1.795383060291E+00      196
 Si  1.636444543730E+01  3.748147734624E+00  1.973239496298E+01  0.000000000000E+00  1.091034680188E+01  2.114547072510E+00 -4.714795740604E+01  5.200780589752E+00 -3.910068584675E+01  2.386012700308E+00      197
 O   2.026103784527E+01  2.097820497567E+00  2.027940215371E+01  0.000000000000E+00 -2.251273074486E+01  6.003290689892E-01  1.529683820748E+01 -1.362567365566E+01  1.528298593250E+01 -1.993362256463E-01      202
 O   1.776250451133E+01  2.701302241972E+00  1.958948903226E+01  0.000000000000E+00 -6.931983790820E+01  1.556080638892E+01  1.881482919124E+01  7.307608058702E+01  1.706009216672E+01 -1.092253391775E+01      205
 O   1.582409959305E+01  4.692428662274E+00  2.086877419872E+01  0.000000000000E+00  5.716768692654E+00  5.033123178894E-01 -1.266772088133E+01  2.354580806204E+00 -9.605512759608E+00  1.704175059629E+00      206
 Ca  1.325475665862E+01  5.498732166121E+00  1.918904832599E+01  0.000000000000E+00 -6.842875760754E+00 -5.680477394631E+00 -4.089384377399E+00 -1.982328870496E+01 -2.824725535377E+00 -2.838765133417E+00      209
 O   2.220584759574E+01  1.920787399404E+01  1.522785835919E+01  0.000000000000E+00  5.000760998905E+00  1.539451161875E+01 -1.689795901729E+01  1.220465328500E+01 -2.464125248383E+01  4.325616787522E+00      210
 O   1.414248786462E+01  1.648769326632E+01  4.031706741097E+00  0.000000000000E+00  1.546388393357E+01  7.487160196865E+00 -5.376039671862E+00  1.926920520520E+00 -2.116410348967E+01  1.802821239398E+01      212
 Si  1.423801811812E+01  3.646718436122E+00  1.514729995287E+01  0.000000000000E+00  8.788930371626E-01 -4.342990381433E+00  1.770728991467E+01 -1.233443857466E+01  1.664433367084E+01  1.422021311577E-02      213
 Si  1.149065618070E+01  4.392943566394E+00  1.569899647703E+01  0.000000000000E+00 -5.614236988363E+01  7.009071358010E+00  2.452916216821E+01  2.615310405045E+01  1.795376980229E+01 -2.144607197140E+01      214
 Si  1.020045801320E+01  6.341792005292E+00  1.335338703982E+01  0.000000000000E+00  7.561077123511E+00  8.108182682936E+00  2.837474402269E+01  1.707272983164E+01  2.167505399009E+01  4.700845627837E+00      215
 O   1.257734015624E+01  3.360734053132E+00  1.539378568823E+01  0.000000000000E+00  2.676345871275E+01 -2.451337285497E+00 -2.015519968972E+01 -2.063522366730E+01 -1.646760631521E+01  7.011075291394E+00      216
 O   1.496696116704E+01  3.738218226053E+00  1.658618284163E+01  0.000000000000E+00  4.813817017509E+00  6.387913448481E+00 -5.566495853022E+00  2.164746602655E+01 -5.023068180554E+00  1.417096485047E+00      217
 O   1.467149489771E+01  4.721783573523E+00  1.408813386744E+01  0.000000000000E+00 -1.972002972672E+00  7.946602310467E+00 -1.273250957597E+01  2.370985357503E+01 -1.325973695569E+01 -6.346572934947E-01      218
 O   1.454446968679E+01  2.169068990096E+00  1.472858156077E+01  0.000000000000E+00  1.470769416317E+01  6.805387081579E+00 -1.954827279218E+01 -3.535484466799E+01 -1.930391327107E+01  2.912970909570E+00      219
 O   1.182079133710E+01  5.654346256314E+00  1.660000018592E+01  0.000000000000E+00  1.583566011567E+01  9.724579235334E+00  2.594593029471E+01  2.854936889199E+01  1.847598943528E+01  7.574814827356E+00      220
 O   1.059264445525E+01  5.092384120418E+00  1.449407642953E+01  0.000000000000E+00  6.704317647516E+00 -5.865217598735E-01 -5.799512263500E+00 -1.669373522140E+00 -4.238432970861E+00  3.223081910347E+00      222
 O   1.140551570196E+01  6.930173508977E+00  1.251504023265E+01  0.000000000000E+00  2.352555665457E+00 -4.914361232637E+00  1.258007553217E+00 -8.874731413948E+00  1.146478527809E+00  1.429450397262E+00      223
 O   2.117359456038E+01  2.159070718345E+01  1.285608771487E+01  0.000000000000E+00  1.412293064778E+00  1.577514483949E+01 -9.211910779672E+00  9.393237750300E+00 -1.517174340289E+01  1.440114758592E+00      224
 Ca  1.582912984059E+01  7.289843276220E+00  5.986198729117E+00  0.000000000000E+00  8.097464636834E-01  3.380726771572E+00  4.322854367595E+00  2.776150533920E+00  1.143079709897E+01  3.729153069796E-01      225
 Ca  1.690001621046E+01  4.981662159377E+00  1.553072510279E+01  0.000000000000E+00 -4.842134292297E+00 -7.734455011667E-01  3.218239180117E+00 -2.411277416313E+00  3.501980361713E+00 -1.427328641237E+00      226
 Si  2.181186705819E+01  2.383914513916E+00  2.015271820681E+01  0.000000000000E+00  3.359124907741E+01 -2.607740116554E+00 -4.535059666668E-01 -3.299115359579E+01 -4.908425629497E-01  5.269410753388E+00      228
 Si  2.303535205123E+01  4.979409772774E+00  2.124807923432E+01  0.000000000000E+00 -9.902995533816E+01 -2.017139649404E+00  8.816950888215E+01 -8.607514756378E+00  9.558584824948E+01 -2.140669377710E+01      229
 O   2.275266138130E+01  9.961087008232E-01  2.053033264556E+01  0.000000000000E+00 -1.488483455214E+01  6.109848543904E+00 -1.426400326381E+01 -4.280799340089E+00 -1.580802619257E+01 -1.840890251780E+00      230
 O   2.226413351777E+01  3.383102877719E+00  2.131391004245E+01  0.000000000000E+00  1.287103942948E+01  9.053039547186E+00  1.768672478811E+01  6.029606400412E+01  1.847523994379E+01  1.937296791289E+00      236
 O   2.290352970135E+01  5.191207703772E+00  2.298683555412E+01  0.000000000000E+00  1.006975720104E+01 -1.010656422474E+01 -3.138873180799E+01 -4.475219315198E+01 -3.127497691274E+01  2.282364414514E+00      237
 H   1.357595941596E+01  1.687051774078E+01  4.698729435126E+00  0.000000000000E+00 -9.930023326077E+00  1.621018982296E+00  4.877960535763E+00  4.514816749580E-01  1.409380880097E+01 -1.233980078727E+01      243
 H   1.883220842986E+01  1.922126164221E+01  7.930394293677E+00  0.000000000000E+00 -1.692053882498E+01 -1.856895470323E+01  2.944903157672E+00 -7.661262572620E+00  6.993224802865E+00 -1.727009899521E+01      247
 H   1.365659015087E+01  8.505158606686E+00  7.867450218593E+00  0.000000000000E+00 -5.939034827965E+01  4.419721236075E+00 -2.413210455371E+00  4.088334905071E+00 -4.188933545319E+00 -3.698758813469E+01      248
 H   6.231360800998E+00  1.075708672220E+01  9.904425681258E+00  0.000000000000E+00  1.128489851938E+00 -5.127737261986E+00  9.716105283913E+00 -4.721286900063E+00  6.112879186838E+00  1.948091851859E+00      249