     8448
Lattice="     49.70      0.00      0.00      0.00     49.70      0.00      0.00      0.00     49.70" pbc="T T T" config_type=md Properties=species:S:1:pos:R:3:charge:R:1:forces:R:3:id:I:1
 Si  1.082191066930E+01  1.779262232837E+01  1.678136414634E+01  0.000000000000E+00 -2.987849462555E+01  1.486308892405E+01  1.318796790308E+01  1.401833315914E+01  8.504613171624E+00 -4.912411374092E+01        1
 Si  1.234123794034E+01  2.066495100278E+01  1.679056230717E+01  0.000000000000E+00  2.955573312272E+00 -1.187997796911E+01  4.760269393323E+01 -9.652648596716E+00  3.498847517336E+01  4.948999280175E+00        2
 Si  1.065654204277E+01  2.274715500141E+01  1.794329799582E+01  0.000000000000E+00  2.206554803539E+01  7.698314254454E+00 -2.399740973003E+01  6.072546071126E+00 -1.425208486005E+01  4.710049839222E+01        3
 O   1.136229608639E+01  1.935834774188E+01  1.719900200416E+01  0.000000000000E+00  1.879189660177E+00  3.218413973725E+00 -3.564508321038E+01  2.859412854980E+00 -2.354845876304E+01  3.201642224252E+00        4
 O   9.452243909569E+00  1.798525212600E+01  1.574274392351E+01  0.000000000000E+00  1.204187862850E+01 -6.847011071831E-01  9.023038739966E+00 -5.993285008747E-01  5.417604668540E+00  2.291267822501E+01        5
 O   1.155977032861E+01  1.662726162754E+01  1.606092914720E+01  0.000000000000E+00  1.665745799117E+01 -1.424129170016E+01 -1.890548344291E+01 -1.375622649625E+01 -1.360712350751E+01  2.395963796819E+01        6
 O   1.026016857661E+01  1.749937718662E+01  1.836848314718E+01  0.000000000000E+00  4.348200647506E+00 -2.074505525199E+01 -2.328686831407E+00 -2.177535770101E+01 -1.300745372436E+00  7.416135772591E+00        7
 O   1.302140713396E+01  2.120453064585E+01  1.534683250703E+01  0.000000000000E+00 -1.811547602601E+01 -4.610354965318E+00  8.231002156517E+00 -3.336756027869E+00  6.983801390380E+00 -2.949989679347E+01        8
 O   1.382574673086E+01  2.006433060011E+01  1.746458722202E+01  0.000000000000E+00 -1.085830847322E+00  1.178978616407E+00  1.616719651886E+01  1.026217883343E+00  1.279867434462E+01 -1.575789685764E+00        9
 O   1.191352382492E+01  2.171088799079E+01  1.814037566479E+01  0.000000000000E+00  1.459683263128E+01 -2.658251189501E+01 -4.698386132513E+01 -2.221082583512E+01 -3.085621607992E+01  2.660087837445E+01       11
 O   1.909244902555E+01  1.836146182963E+01  2.119659100026E+01  0.000000000000E+00 -4.357278448590E+00 -3.589725184511E-01 -8.504391878575E+00 -4.144002108625E-01 -7.660178395338E+00 -4.190452560998E+00       13
 Ca  3.625663912638E+00  1.593989909290E+01  1.609915267200E+01  0.000000000000E+00  1.998353638052E+00 -5.576860996550E+00  7.752368923629E+00 -5.632578731567E+00  1.360706998940E+00  1.082484457745E+01       14
 Ca  2.075144163484E+01  1.445314490299E+01  1.871507090934E+01  0.000000000000E+00 -2.996147787363E+00 -9.017066052525E+00 -9.545316036538E+00 -1.167600765785E+01 -1.058393364246E+01 -2.086783120109E+00       15
 O   7.543619508800E+00  3.814426526159E+00  1.647219681771E+01  0.000000000000E+00  8.511553647704E+00  6.953077081855E-01 -2.738799122798E+01 -1.090496420165E-01 -1.254262483752E+01  4.482993848405E+00       16
 O   9.481364065581E+00  1.603115101326E+01  2.067538774230E+01  0.000000000000E+00 -4.877651139174E+00  6.534068932438E+01  3.320972424143E+01  8.426993707521E+01  1.522938722965E+01 -8.247163747879E+00       18
 Si  2.044712461279E+01  1.966978780254E+01  1.821073242287E+01  0.000000000000E+00  1.342396227931E+01  1.319907720607E+01 -6.115515270295E+01  1.222000286132E+01 -6.866538912302E+01  1.291362450729E+01       19
 Si  1.839902006834E+01  2.196175906649E+01  1.886146994149E+01  0.000000000000E+00 -4.160468831647E+01  1.885284223868E+01 -1.035217923942E+01  1.619143148416E+01 -1.009836211960E+01 -4.966091332306E+01       20
 O   1.912543218077E+01  2.060073334267E+01  1.849685433024E+01  0.000000000000E+00  2.406108098233E+00 -3.376934120791E+01  1.690247038327E+01 -3.032059950299E+01  1.747686634880E+01  2.591710914390E+00       22
 O   2.167460764014E+01  2.076750356627E+01  1.793172919993E+01  0.000000000000E+00 -4.873260770464E+00 -1.175318358547E+01  1.576657515657E+01 -1.014830235224E+01  1.905752236927E+01 -4.669309918330E+00       23
 O   2.019502154877E+01  1.923916002861E+01  1.656505453765E+01  0.000000000000E+00 -5.249169467084E-02  9.272241789642E+00  4.419640644787E+01  7.983466570439E+00  5.388134271240E+01 -5.000718179510E-02       24
 O   2.082396592438E+01  1.844659432827E+01  1.925041235985E+01  0.000000000000E+00  4.719627748307E+00  4.027547667021E+00 -3.645505499321E+00  4.203049734242E+00 -3.943493826309E+00  4.180810647196E+00       25
 O   1.893800902718E+01  2.255220144705E+01  2.034871315577E+01  0.000000000000E+00 -3.140528650988E+01 -4.963193882123E+00 -4.530253274214E+01 -4.478259423184E+00 -4.216186878538E+01 -3.739877549200E+01       26
 O   2.114681113461E+01  1.674497729630E+01  2.156158323247E+01  0.000000000000E+00  2.210485517123E+01  4.121518353498E+00  3.095271089539E+00  5.307051747556E+00  3.035728519338E+00  1.750359879908E+01       27
 O   1.929933340945E+01  2.306846914494E+01  1.801714762843E+01  0.000000000000E+00 -1.297636559518E+00  1.656609357428E+01 -3.881477896319E+01  1.293860254353E+01 -4.157702294911E+01 -1.551063360558E+00       29
 Ca  5.306861411436E+00  1.002313591104E+01  1.474923457231E+01  0.000000000000E+00  1.087330730966E+00 -1.326570558547E+01  1.005513154139E+01 -1.952073734047E+01  3.617895511956E+00  2.053655230799E+00       32
 Si  1.392792592318E+01  1.953530064465E+01  1.254418814633E+01  0.000000000000E+00 -3.910587813279E+00  7.334253192740E+01  3.710757707267E+01  4.709538575118E+01  4.120087953307E+01 -5.484988149065E+00       37
 Si  1.229404203961E+01  2.174120137702E+01  1.383630576864E+01  0.000000000000E+00  1.154404261353E+01 -5.144305425635E+00 -6.230589445454E+00 -3.273884529286E+00 -5.536096835008E+00  2.041487692633E+01       38
 O   1.232814752523E+01  2.037353284762E+01  1.277904195361E+01  0.000000000000E+00  2.894531823609E+01 -1.639007210573E+01  4.254069025188E+00 -1.028046635938E+01  4.103968882441E+00  4.783511802248E+01       40
 O   1.441266733428E+01  1.850820348567E+01  1.377061460950E+01  0.000000000000E+00 -2.458238319064E+01 -1.776199833644E+00  8.048626495099E-01 -1.321541736750E+00  8.423892430461E-01 -3.156776880383E+01       41
 O   1.504819848432E+01  2.075017942868E+01  1.271913253825E+01  0.000000000000E+00 -9.123906604825E+00 -1.652502324376E+01 -7.342608192511E+00 -1.012925992073E+01 -8.687151041256E+00 -1.258108732005E+01       42
 O   1.381357004092E+01  1.903322912986E+01  1.103015303456E+01  0.000000000000E+00  1.705190441114E+01 -6.006491898922E+00 -1.295887508174E+01 -3.480887262688E+00 -1.622899773306E+01  2.349521541472E+01       43
 O   1.309567043015E+01  2.310561663650E+01  1.340330524313E+01  0.000000000000E+00 -1.185582108895E+01 -3.793825888881E+01  9.258874389278E+00 -2.200755220167E+01  9.046363218381E+00 -2.091806284018E+01       44
 O   1.064298798139E+01  2.161497731287E+01  1.405387316527E+01  0.000000000000E+00 -1.077422965411E+01  2.716466277126E+01  6.101153895146E+00  1.766223112978E+01  4.620399431175E+00 -2.188151766632E+01       46
 O   7.876752289172E+00  2.152849308113E+01  1.501892912634E+01  0.000000000000E+00  1.068308843063E+01  2.017708243395E+01 -1.318024218828E+01  1.407614410864E+01 -6.912443753814E+00  2.919868327968E+01       47
 O   1.642572291696E+01  1.593604661540E+01  1.117431367255E+01  0.000000000000E+00  1.181208194990E+01 -2.031818739404E+01 -1.181495053390E+01 -1.424705917836E+01 -1.736742939517E+01  1.145994544838E+01       48
 Ca  6.591972498351E+00  2.104848514127E+01  1.322445847298E+01  0.000000000000E+00 -3.830549013692E+00 -3.898476951928E+01  1.909840426513E+01 -2.449356626503E+01  9.519947900733E+00 -1.223112718049E+01       49
 Si  2.050208295098E+01  2.015351244444E+01  2.322315820196E+01  0.000000000000E+00  1.820378286753E+01 -1.182300988250E+01 -2.061098459072E+01 -1.362381022571E+01 -1.819597972444E+01  1.789428739674E+01       51
 Si  1.950066207212E+01  2.260432126630E+01  2.178760245592E+01  0.000000000000E+00  3.845812716370E+01 -3.687839282062E+01  9.356024047684E+01 -3.554593621826E+01  8.373966968676E+01  4.457899216413E+01       52
 O   1.935613242570E+01  2.105341282887E+01  2.257210398514E+01  0.000000000000E+00 -2.687116743963E+01  2.402859463975E+01 -3.540143718573E+01  2.576190099125E+01 -3.035760010135E+01 -2.922741841491E+01       54
 O   1.993787493191E+01  1.861953396156E+01  2.365266046424E+01  0.000000000000E+00  2.961415473451E+00  6.493724412674E-02  1.781098391379E+01  8.249071056149E-02  1.501366707666E+01  2.765599451823E+00       55
 O   2.178283716793E+01  1.976717620826E+01  2.228104463054E+01  0.000000000000E+00 -3.423180106558E+01 -1.004941584444E+01  2.696597659728E+01 -1.132743901211E+01  2.636301336104E+01 -3.106418316277E+01       56
 O   2.109489678464E+01  2.096968995691E+01  2.442938243729E+01  0.000000000000E+00  1.167913850428E+01 -1.393266958185E-01  4.596818602179E+01 -1.623135650964E-01  3.969376393350E+01  1.160981804742E+01       57
 O   1.675638040732E+01  2.184677884884E+01  1.865774630594E+01  0.000000000000E+00  3.537647589243E+01  1.300146425971E+01  2.991013235386E+00  1.110360586528E+01  2.686206294889E+00  4.612344829170E+01       58
 O   1.581270046857E+01  1.283438319333E+01  1.198564376812E+01  0.000000000000E+00 -4.864587946554E+01  2.956875910866E+01  1.319153674630E+01  2.761337323371E+01  1.740363916405E+01 -3.948344301331E+01       59
 H   3.674322627991E+00  5.525739874191E+00  1.519799998091E+01  0.000000000000E+00 -5.324382969658E+00 -1.989464297276E+00 -4.773241520462E-01 -5.471824414545E+00 -2.604027471782E-01 -8.010653875819E+00       70
 H   1.383650460259E+01  1.989413436280E+01  1.846102283393E+01  0.000000000000E+00 -5.116916117418E-01  1.126117778067E+00 -2.507970012235E+01  1.044995757818E+00 -1.879719175346E+01 -7.357104968842E-01       73
 H   1.446814154996E+01  8.503317781688E+00  1.470777175951E+01  0.000000000000E+00 -1.918847386921E+00 -1.185184390891E+00 -2.205641175663E+00 -2.049955318818E+00 -2.169705191221E+00 -1.127758464983E+00       83
 Si  2.321174032128E+00  2.138187416544E+01  2.037490952247E+01  0.000000000000E+00  5.612229676809E+00  4.981778458519E+01 -1.319692104035E+01  4.747165031839E+01 -1.372244193225E+00  2.598599782374E+01       89
 Si  2.648721751210E+00  2.131465219113E+01  1.704321489392E+01  0.000000000000E+00  6.603896019980E-01  1.043762198021E+01  3.109084122013E+01  8.345931840455E+00  4.599944165589E+00  2.412754508373E+01       90
 O   2.147945149298E+00  2.144987920687E+01  1.865764558942E+01  0.000000000000E+00  5.941017325016E+00  2.480919561544E+00 -1.061734545319E+00  2.157966367489E+00 -1.373582231168E+00  6.149527367813E+00       92
 O   2.402684192741E+00  1.986515923519E+01  2.074777647069E+01  0.000000000000E+00  4.310960246329E+00 -4.011408707483E+01  1.998811891228E+01 -4.189637254355E+01  3.149858158747E+00  3.910803707786E+00       95
 O   1.620216282960E+00  2.000265489395E+01  1.651627474512E+01  0.000000000000E+00  1.452239369103E+01  3.195762439496E+01  1.866517752314E+01  2.638754242909E+01  1.588630289922E+00  7.939521649736E+00       96
 O   4.310794079656E+00  2.122697602074E+01  1.705540116835E+01  0.000000000000E+00 -8.124112066088E+00 -1.304631039870E+01  1.143496882099E+00 -1.048241904072E+01  2.890216149596E-01 -4.000430751969E+01       97
 O   1.155005082640E+01  1.352845107784E+01  2.119604337208E+01  0.000000000000E+00  2.544358966755E+01  1.223872577981E+01  9.894039613699E+00  1.917533359549E+01  5.391414728241E+00  2.980180461849E+01       98
 O   3.865484756766E+00  1.234900774215E+01  1.967891763059E+01  0.000000000000E+00  7.742099453024E-01 -1.187418103152E+01  2.196700925528E+01 -1.892225151439E+01  4.314891608273E+00  2.472794550200E+00      101
 Ca  2.139589255614E+01  2.277220890243E+01  1.937325560281E+01  0.000000000000E+00  5.136685451943E+00  9.384768971553E+00 -1.297155069423E+01  7.984009317594E+00 -1.432582683212E+01  5.467108879465E+00      102
 O   1.676902926401E+01  4.111977273241E+00  1.145405711527E+01  0.000000000000E+00 -1.357361101399E+01  3.574023564512E+00 -1.522804121162E+01  1.004836205116E+01 -2.229423741661E+01 -3.342798322716E+00      105
 Si  5.567969866414E+00  1.596117040944E+01  1.897391351224E+01  0.000000000000E+00 -6.291339303625E+00  1.837485512762E+00  5.659568792099E+01  2.184319213742E+00  1.660822817127E+01 -1.803478487455E+01      107
 Si  7.981378840249E+00  1.697960735770E+01  2.085098539962E+01  0.000000000000E+00  3.993674132895E+00  3.285450999703E+00 -1.535329499371E+01  4.034539161173E+00 -5.876962716262E+00  8.496153365031E+00      108
 Si  7.312476262329E+00  1.983056859180E+01  1.970391422014E+01  0.000000000000E+00  6.370540152352E+00 -3.674532583711E+01 -1.834268218680E+01 -3.651063987066E+01 -6.807298619952E+00  1.727614954579E+01      109
 O   6.967218213590E+00  1.650034496921E+01  1.970515079182E+01  0.000000000000E+00  2.188251852914E+00  6.363982705231E+00  7.529431804667E+00  7.600037397828E+00  2.662207204689E+00  5.182399825253E+00      110
 O   5.878239355444E+00  1.595719963807E+01  1.744257876735E+01  0.000000000000E+00 -1.732568159078E+00  8.045140399231E+00 -2.389890511010E+01  8.794023907125E+00 -8.054054761280E+00 -4.703268160623E+00      111
 O   4.303046005958E+00  1.715109708015E+01  1.938198559236E+01  0.000000000000E+00  9.328474655110E+00 -3.814329984405E+01 -4.636147183150E+00 -4.310469963335E+01 -1.018561503822E+00  3.745492089992E+01      112
 O   5.610493255235E+00  1.441397684168E+01  1.977968337263E+01  0.000000000000E+00 -4.961742384750E+00  2.668679130526E+01 -2.863878539274E+01  3.662114127471E+01 -8.123371302618E+00 -1.274726420203E+01      113
 O   7.378677846844E+00  1.642936418827E+01  2.232365271465E+01  0.000000000000E+00 -1.720088971026E-01  1.287180289266E+01 -7.707416972245E+01  1.748976127708E+01 -2.547546658087E+01 -3.829950124913E-01      114
 O   1.320291800918E+01  1.301034511370E+01  3.593143918729E+01  0.000000000000E+00 -4.447164004227E+01 -1.255855221414E+01 -2.211930793324E+01 -3.468369602952E+01 -8.127684714774E+00 -4.382299309289E+01      115
 O   8.231389490311E+00  1.863350008989E+01  2.058523772593E+01  0.000000000000E+00 -5.701419598792E+00 -1.367468276660E-01 -7.067634489869E+00 -1.510701662164E-01 -2.826124868501E+00 -1.290637537340E+01      117
 O   5.757999680650E+00  1.959562210436E+01  1.980770287068E+01  0.000000000000E+00 -1.155026754692E+01 -1.668744823957E+00  2.551592669923E+01 -1.686805423369E+00  7.417351660858E+00 -3.930786568369E+01      118
 O   6.996168372782E+00  9.842860789633E+00  2.171907152975E+01  0.000000000000E+00  3.818330431601E+00  2.482525914642E+00 -2.032501170447E+01  5.477895000949E+00 -6.547112470644E+00  5.371982617412E+00      119
 Ca  2.326225568523E+01  1.972086418615E+01  2.099322658785E+01  0.000000000000E+00  2.580795005275E+01 -3.154313790134E+00 -4.471683579132E+01 -3.357825676420E+00 -4.955000429589E+01  2.187900798616E+01      120
 Ca  2.848713972950E+00  1.241354395937E+01  1.784477854500E+01  0.000000000000E+00 -3.979014263344E+00 -9.078428454145E+00 -9.452517927274E+00 -1.305046696020E+01 -1.499754876873E+00 -1.744822755504E+01      121
 Si  1.556855826745E+00  1.700385700264E+01  1.356284887926E+01  0.000000000000E+00 -2.411991710171E+02 -2.870528904553E+01  7.294699348317E+00 -2.289630507358E+01 -8.850023074766E+01 -6.436259817366E+01      125
 Si  2.305320687241E+00  1.908320997591E+01  1.540965000793E+01  0.000000000000E+00  3.886197106630E-01  8.259269822471E+00 -4.614785413369E+01  6.669342183314E+00 -7.790719296342E+00  2.411979026447E+01      126
 Si  3.188816770026E+00  2.106461241179E+01  1.284132635682E+01  0.000000000000E+00 -4.997406536768E+00  5.417479851041E+01 -1.087335367473E+01  3.302582807542E+01 -3.061367158133E+00 -3.085934001921E+01      127
 O   1.088645866751E+00  1.819053715889E+01  1.468868195583E+01  0.000000000000E+00  5.281131834523E+01 -1.858763373864E+00  2.237947332369E+00 -1.500933358446E+00  1.849108705005E+01  1.609630710594E+01      128
 O   2.441119991529E+00  1.729673842969E+01  1.228876776524E+01  0.000000000000E+00  2.549969884506E+01  9.368034480671E-01  1.914526107972E+00  6.655682550655E-01  5.340269610416E-01  7.289877754286E+00      129
 O   1.897750151935E+00  1.570942228398E+01  1.467660062088E+01  0.000000000000E+00  1.086990249931E+01  2.448474286672E+01 -1.375421981524E+01  2.287498457065E+01  5.904954972899E+00 -2.055216787998E+01      131
 O   3.699666431844E+00  1.838091989429E+01  1.576607510759E+01  0.000000000000E+00 -3.169249947543E+00 -1.475915571275E+01 -4.065778717033E-01 -1.265953819667E+01 -9.789973538928E-02 -1.572817319240E+01      132
 O   2.416641000759E+00  4.831105693161E+00  9.956705710777E+00  0.000000000000E+00  1.724812006455E+01  1.803841331404E+01  8.292171964860E+00  3.719954276849E+01  2.378890074624E+00  2.288317095003E+01      133
 O   2.747218293514E+00  2.013928404207E+01  1.408353845322E+01  0.000000000000E+00 -1.534153714232E-01  8.382594201691E+00  1.451103321549E+01  5.862005199921E+00  3.141381294377E+00 -1.510045592353E+01      134
 O   1.948643228820E+00  2.159449464549E+01  1.177284181979E+01  0.000000000000E+00 -8.570244458828E-01 -3.941092385317E+01  4.798918622778E+00 -2.148596575711E+01  2.307407044922E+00 -3.479690986556E+01      135
 O   8.036069830897E+00  1.470399810080E+01  1.320176701895E+01  0.000000000000E+00  8.110240023447E+00  2.365822413999E+01  3.454858499181E+01  2.124118631117E+01  2.103012734238E+01  1.483971100441E+01      136
 Si  8.567838355025E+00  1.391678454107E+01  2.520698029439E+01  0.000000000000E+00 -9.040898281518E+00  1.664662245035E+01  5.715607466783E+01  3.015143928081E+01  1.942731747486E+01 -1.468517824777E+01      139
 Si  7.999823011045E+00  1.661661531868E+01  2.375783546828E+01  0.000000000000E+00  1.923918883679E+01  5.784882331311E+01  5.428512105633E+01  8.271015486298E+01  1.827907938682E+01  3.996215910063E+01      140
 O   7.922468276189E+00  1.509299146320E+01  2.427125799424E+01  0.000000000000E+00 -5.265141256687E-01 -1.960388730743E+01  5.460184426386E+00 -3.152529488199E+01  1.782278360291E+00 -1.003055225586E+00      142
 O   7.828207040355E+00  1.247291981267E+01  2.568373992134E+01  0.000000000000E+00  1.983139786223E+01  1.553031077325E+01 -4.516378146643E+01  3.197939767018E+01 -1.376557437224E+01  3.159796796811E+01      143
 O   7.028466808256E+00  1.778820970994E+01  2.444568701608E+01  0.000000000000E+00  9.755605850450E-02  6.672197127998E+00  1.491768607886E+01  9.169356858292E+00  4.289037219215E+00  2.469027277919E-01      148
 O   1.282969462774E+01  1.579932404413E+01  1.188483415220E+00  0.000000000000E+00  4.858488967367E+00  3.119867593243E+01  1.299607846013E+01 -3.717141219525E+00 -1.030415583461E+01  5.983060687533E+00      150
 Ca  4.653537425904E+00  1.176206877724E+01  6.984580790336E+00  0.000000000000E+00 -6.385119236414E-01 -8.448834040246E+00  2.348977491030E+00 -5.017107539146E+00  1.565026591466E+00 -1.613873591980E+00      151
 Ca  1.211161332321E+01  2.198109938440E+01  1.988722325967E+00  0.000000000000E+00  1.576641605156E+00 -2.404987929974E+00 -4.148021496342E+01 -2.502562082021E+00 -4.677032075220E+00  2.861412009424E+00      152
 H   6.203107349175E+00  1.850004040276E+01  1.478892154793E+01  0.000000000000E+00  4.041656006574E+00  3.594442874266E+01  1.835266461820E+01  2.873395545023E+01  7.697893886390E+00  1.205376518683E+01      155
 H   1.354488863977E+01  1.380988110812E+01  3.627906199830E+01  0.000000000000E+00  4.848880143737E+00  1.700979440781E+01  1.809327725025E+01  4.468535109521E+01  6.755175354165E+00  4.943743730449E+00      156
 H   1.651553194442E+01  1.250052323726E+01  1.149001030241E+01  0.000000000000E+00  3.681298439981E+01 -1.291992354319E+01 -1.838559741002E+01 -1.187550727277E+01 -2.642712350560E+01  2.786356312782E+01      159
 H   1.692337937220E+01  3.261762736922E+00  1.098159848412E+01  0.000000000000E+00  5.088140922576E+00 -1.300826044614E+00  6.151168552119E+00 -3.902608100420E+00  9.479363058156E+00  8.920695504964E-01      160
 H   1.521018067826E+01  1.719662429440E+01  1.469309715414E+01  0.000000000000E+00  1.955298538015E+01 -9.705716623674E+00  1.637454664297E+01 -8.292734368141E+00  1.695080420088E+01  2.210659758282E+01      164
 H   1.879559204234E+01  6.062428999153E+00  6.087923356391E+00  0.000000000000E+00  5.212166005253E+01  8.864997074397E+00 -1.320577785357E+01  8.902277082520E+00 -4.077094907525E+01  1.681159405219E+01      168
 H   5.099577914689E+00  2.112272060795E+01  3.277727646365E+01  0.000000000000E+00  6.730797851283E+00 -1.875182506998E+01 -6.745137041017E+00 -2.909822867635E+01 -1.049426785781E+00  2.787931959461E+01      169
 Si  1.165311293696E+01  3.405323059558E-01  1.933599559404E+01  0.000000000000E+00  8.600246418187E+00 -1.566100564426E+02 -4.857321771317E+00  2.557735379100E+01 -2.927334095472E+00 -1.087775846349E+02      177
 Si  1.079397924255E+01  3.192635781171E+00  1.861230030130E+01  0.000000000000E+00 -2.951579255806E+01  1.824202555046E+00  1.126534883343E+02  2.713266693375E+00  6.533203284905E+01 -8.835933190863E+00      178
 Si  8.039849740349E+00  3.746595153908E+00  2.000107214701E+01  0.000000000000E+00 -1.415710513131E+01 -1.311777710891E+01 -3.095289927668E+01 -7.002881165047E+01 -1.244216596908E+01 -6.597255320848E+00      179
 O   1.067936694670E+01  1.581082042084E+00  1.874904910835E+01  0.000000000000E+00  9.322980934380E+00  3.979873630901E-01  3.454032928794E+00 -3.268471955942E+01  1.967400313446E+00  1.386081947442E+00      180
 O   1.208506854419E+01  5.952818352070E-01  2.093895866684E+01  0.000000000000E+00  2.853956245145E+00  3.654581295258E+00 -3.253760637278E+01 -3.065710293373E+01 -1.877931035327E+01 -4.441834740735E+00      182
 O   1.125003426998E+01  3.646439127180E+00  1.721994195652E+01  0.000000000000E+00  8.100580546559E+00  5.911041005402E+00 -5.030577260189E+01  2.804815131997E+01 -3.286548045157E+01  2.661460811268E+00      184
 O   1.174970782578E+01  3.955420540468E+00  1.978686226947E+01  0.000000000000E+00 -1.404831315552E+01 -5.117537864391E+00 -3.723369439473E+01 -2.566799450509E+01 -2.210987393830E+01 -4.726992344022E+00      185
 O   9.021879130230E+00  3.271434847232E+00  1.873519542634E+01  0.000000000000E+00  1.115830573644E+01 -7.112926876576E-01 -1.649188142884E+01 -3.569674107705E+00 -7.941617767804E+00  4.019057105606E+00      187
 O   6.590209409836E+00  4.250600038871E+00  1.944081944886E+01  0.000000000000E+00  2.115634655025E+00 -2.575294494879E+00  1.400546679444E+01 -1.154038810969E+01  4.747688712438E+00  1.356470296122E+00      188
 Ca  1.308020209478E+01  2.476557128649E+00  2.081732451481E+01  0.000000000000E+00  2.798838889254E+00  7.185881679806E-01  3.327452551387E+01  2.347330188173E+01  2.090746666411E+01  1.470276876409E+00      190
 O   1.347553097088E+01  1.799873784039E+01  8.417114424337E+00  0.000000000000E+00  3.248814954195E+00  3.313915799639E+01  1.870776800445E+00  1.549753584142E+01  2.995053820476E+00  4.339314627296E+00      193
 O   5.655623047065E+00  1.121793903224E+01  1.307711265443E+01  0.000000000000E+00  1.742454632202E+01  6.346721549035E+00 -4.780831686194E+00  7.398577621476E+00 -2.067626285946E+00  3.456162065228E+01      194
 Si  1.853539858294E+01  1.793879196180E+00  1.985121152488E+01  0.000000000000E+00 -7.875681501346E+01 -1.235171014832E-01 -2.740837709803E+01 -5.803670064972E+01 -2.559164680638E+01 -8.961805788595E+00      196
 Si  1.606511410991E+01  3.849761125042E+00  1.968195770125E+01  0.000000000000E+00  5.001944782974E+00 -2.044191524248E+00  5.083171918652E+01 -9.378692840138E+00  4.149065766370E+01  1.205378970922E+00      197
 O   1.984397023434E+01  2.442669101232E+00  2.021129732787E+01  0.000000000000E+00  8.865592930804E+01  5.423071301883E+00  3.145995241438E+01  4.161998756654E+01  3.088818838085E+01  1.122421149366E+01      202
 O   1.724406695501E+01  2.719984081924E+00  1.966312118010E+01  0.000000000000E+00 -7.049525570946E+00  2.560339091799E+00 -1.347975694834E+01  4.439971148481E+00 -1.182141071224E+01 -2.166631631300E+00      205
 O   1.611638478862E+01  4.495983858281E+00  2.119810278352E+01  0.000000000000E+00 -3.046019948790E+00 -4.993258407702E+00 -3.375444026119E+01 -2.354270128355E+01 -2.566265260289E+01 -8.497474279364E-01      206
 Ca  1.333866495124E+01  5.147497362324E+00  1.876258000209E+01  0.000000000000E+00 -8.798225003752E+00  3.421727280678E+00 -1.875674675673E-02  1.247216410813E+01 -1.333451798929E-02 -3.395305314700E+00      209
 O   2.224096635545E+01  1.873573424989E+01  1.480609168704E+01  0.000000000000E+00  1.340642542812E+01  6.024316134415E+00  7.286649737296E+00  4.760772961880E+00  1.094563880035E+01  1.129353914070E+01      210
 O   1.407682304360E+01  1.764077276805E+01  4.182839660781E+00  0.000000000000E+00  3.654506113546E+00 -1.374194625554E-02  2.599526364252E+00  1.470415610513E-01  6.163530471789E+00  4.579748692503E+00      212
 Si  1.394127411895E+01  3.621834267644E+00  1.471247743762E+01  0.000000000000E+00 -1.244890302918E+01  4.783850776353E+00 -4.194703062551E+01  2.512699515615E+01 -3.974823784136E+01 -3.179367900550E+00      213
 Si  1.149806124021E+01  4.745290289046E+00  1.603959198313E+01  0.000000000000E+00  8.404882033879E+00  4.467641348368E+00 -3.037788098508E+01  1.510110867616E+01 -2.177653498179E+01  3.468724358195E+00      214
 Si  1.039014542959E+01  6.069911863544E+00  1.375418412775E+01  0.000000000000E+00 -1.719608674130E+01  8.045947550286E+00 -1.126878988245E+01  1.823180411457E+01 -8.512636199038E+00 -1.004593550927E+01      215
 O   1.221490464656E+01  3.677861384637E+00  1.499043545177E+01  0.000000000000E+00  1.538790221037E+01  3.039669199558E+00  2.669512124711E+00  1.410534103615E+01  2.175242751360E+00  4.667457723109E+00      216
 O   1.473320730746E+01  3.980253936250E+00  1.603987008987E+01  0.000000000000E+00  1.611789491702E+01  4.871262541979E+00  4.302300044018E+01  1.964737582583E+01  3.951819939453E+01  4.361123997941E+00      217
 O   1.450619091789E+01  4.664589883996E+00  1.357051531390E+01  0.000000000000E+00 -1.124079494001E+01 -1.032405998842E+00 -4.453148410123E+00 -2.457328441915E+00 -4.760189243276E+00 -3.601723903941E+00      218
 O   1.436701593714E+01  2.116557107206E+00  1.444870518989E+01  0.000000000000E+00  5.301757862137E-01  1.093310598507E+01  2.695912112265E+00 -2.305950244354E+01  2.680670120471E+00 -2.740771039006E+00      219
 O   1.239047804821E+01  6.178632735223E+00  1.646787897483E+01  0.000000000000E+00 -7.341265572812E+00 -1.004615292088E+01  7.171320014641E+00 -2.677596121235E+01  5.395721170519E+00 -3.660793684446E+00      220
 O   1.011978426377E+01  5.420778562020E+00  1.528924810523E+01  0.000000000000E+00  7.592604409492E+00 -2.552484037723E+00  7.583932615767E+00 -7.199253998457E+00  5.019721140916E+00  4.067065674536E+00      222
 O   1.179249604845E+01  5.914534382330E+00  1.317248925568E+01  0.000000000000E+00  1.692951025810E+01  4.307643907356E-01 -1.264855802297E+01  9.593721063900E-01 -1.132345357126E+01  8.491007339424E+00      223
 O   2.121564744509E+01  2.153159331097E+01  1.252992478446E+01  0.000000000000E+00  1.133230225471E+01 -4.295926617983E+00 -8.183368913853E+00 -2.499937493036E+00 -1.385606639911E+01  1.150106420542E+01      224
 Ca  1.544479789567E+01  8.128213038250E+00  6.464795954687E+00  0.000000000000E+00  4.154568606423E+00 -7.783917374187E+00 -1.547648449635E+00 -6.190959478480E+00 -3.697427990874E+00  2.186446138250E+00      225
 Ca  1.692071891657E+01  4.842652270663E+00  1.605727243813E+01  0.000000000000E+00 -9.348918091440E+00  4.447077931743E-01  1.098594895720E+00  1.542913610914E+00  1.157669554732E+00 -2.672174210912E+00      226
 Si  2.152761837586E+01  2.629337045758E+00  2.028828186956E+01  0.000000000000E+00 -3.668741041278E+01 -8.190711228550E+00 -7.098466398182E+01 -2.509340832444E+01 -7.532085597804E+01  1.885505310783E-01      228
 Si  2.292562332002E+01  5.061151817905E+00  2.093577265623E+01  0.000000000000E+00 -5.881698115903E+01  8.989480280425E-01  7.873400609810E+01  3.718555028972E+00  8.621731788552E+01 -1.298467077477E+01      229
 O   2.202606801189E+01  1.084948212856E+00  2.076787558522E+01  0.000000000000E+00 -4.990583561086E+01  2.604965532585E+01 -2.170550833225E+01  4.990347648638E+01 -2.302050591534E+01 -2.436730780813E+01      230
 O   2.207262741813E+01  3.595303154268E+00  2.138287783352E+01  0.000000000000E+00  1.089038143881E+01  4.632886215567E+00  3.638356749896E+01  2.521860911765E+01  3.755719579933E+01  1.496741465904E+00      236
 O   2.318336296127E+01  5.130445716583E+00  2.274100215590E+01  0.000000000000E+00 -6.956578930575E+00 -8.068116274130E-01 -2.784951963018E+01 -3.576239954961E+00 -2.839125195352E+01 -1.539481163111E+00      237
 H   1.418026227448E+01  1.765499968063E+01  3.218811044710E+00  0.000000000000E+00  4.708810573436E+00 -1.259493138361E-01 -6.175188336495E-01  1.328550134805E-01 -3.588732221084E+00  5.862659488307E+00      243
 H   1.821513860995E+01  1.801142584530E+01  7.345764222691E+00  0.000000000000E+00  2.298261208788E+00  2.913745254920E+01  6.655279156845E+00  1.188339325907E+01  1.650295716753E+01  2.272558129895E+00      247
 H   1.681106470158E+01  8.506605335370E+00  9.672532621264E+00  0.000000000000E+00 -1.890101677319E+01 -6.374858317976E+00 -1.344590984287E+01 -7.248605360845E+00 -2.336927350787E+01 -9.564146767668E+00      248
 H   6.645659015999E+00  1.159059809683E+01  9.813403162174E+00  0.000000000000E+00 -3.303753539323E-01 -1.603059183734E+00 -1.175075469592E+01 -1.357260939546E+00 -7.957637895763E+00 -5.762028926416E-01      249