     8448
Lattice="     49.70      0.00      0.00      0.00     49.70      0.00      0.00      0.00     49.70" pbc="T T T" config_type=md Properties=species:S:1:pos:R:3:charge:R:1:forces:R:3:id:I:1
 Si  1.059728965311E+01  1.771914892755E+01  1.562404727563E+01  0.000000000000E+00  1.286761082222E+01 -1.526162533525E+01  2.548425404894E+01 -1.345709981421E+01  1.728515134304E+01  2.151522889004E+01        1
 Si  1.206606991143E+01  2.017167448025E+01  1.680584736624E+01  0.000000000000E+00  1.108653499148E+01  3.370704265616E+01 -1.414480689777E+01  2.808271641510E+01 -1.015552653745E+01  1.853411894707E+01        2
 Si  1.080942457072E+01  2.275152873355E+01  1.746942585293E+01  0.000000000000E+00  2.188815840890E+01 -1.566635933903E+01  2.359982067537E+01 -1.202918300848E+01  1.460268263082E+01  4.606989592339E+01        3
 O   1.078329935347E+01  1.944790085914E+01  1.591464157594E+01  0.000000000000E+00  1.045648545565E+01 -1.128447571469E+01  8.175784066592E+00 -9.234332675414E+00  5.539674055410E+00  1.885848531239E+01        4
 O   9.002048506831E+00  1.741080333553E+01  1.537392211061E+01  0.000000000000E+00  7.303057538998E+00  2.376623031741E+01 -9.940444605871E+00  2.098583085004E+01 -5.820529327370E+00  1.412479597983E+01        5
 O   1.169913424141E+01  1.696811924918E+01  1.460080153768E+01  0.000000000000E+00 -1.829967890370E+01  2.322411155283E+01  6.617528584554E+00  1.998398518376E+01  5.302404464388E+00 -2.654137711839E+01        6
 O   1.090058391266E+01  1.706562115487E+01  1.717969830414E+01  0.000000000000E+00  1.359846741170E+00  1.095451076532E+01 -1.837063122639E+01  1.102773747933E+01 -1.165623538124E+01  2.128934513915E+00        7
 O   1.287320156295E+01  2.144929781002E+01  1.578576482412E+01  0.000000000000E+00 -2.103906901513E+01 -5.056355804981E+01 -4.226594333002E+00 -3.721261381676E+01 -3.446763674728E+00 -3.505524672663E+01        8
 O   1.334409785924E+01  1.935106436735E+01  1.748339039912E+01  0.000000000000E+00 -1.110705232478E+01  2.478126967566E+01 -3.892261450597E+00  2.238949776098E+01 -2.970746320068E+00 -1.610699252476E+01        9
 O   1.167205995188E+01  2.128870898168E+01  1.800092123532E+01  0.000000000000E+00 -5.537029515344E+00  1.193043483135E+01 -1.818686080954E+01  1.008792115516E+01 -1.179262588455E+01 -1.009900655592E+01       11
 O   1.918920086213E+01  1.766397523225E+01  2.093403724714E+01  0.000000000000E+00  7.499807641333E+01  1.189244328581E+01  6.005405718027E+01  1.409404437174E+01  5.504859632249E+01  6.903696374590E+01       13
 Ca  2.444143140828E+00  1.649071403897E+01  1.694851839712E+01  0.000000000000E+00 -5.178829266765E+00 -5.743826197243E+00  5.310933268760E+00 -5.903282522743E+00  2.817807441280E+00 -1.514813586490E-01       14
 Ca  2.051517592386E+01  1.444272053051E+01  1.870048754011E+01  0.000000000000E+00 -7.562539712226E+00  1.147835190982E+01 -9.865154611544E+00  1.486221217236E+01 -1.082246556074E+01 -5.324041478854E+00       15
 O   7.291905078727E+00  4.034905002824E+00  1.684862108285E+01  0.000000000000E+00 -1.843373602404E+01  2.799078012097E+00 -8.571282293254E+01  1.062897031530E+01 -3.709560359750E+01 -1.015106825651E+01       16
 O   9.402481735232E+00  1.692674551680E+01  1.944760669574E+01  0.000000000000E+00 -7.713959658020E-01 -2.230054725176E+01  1.636754049971E+00 -2.562171633179E+01  7.913338798285E-01 -1.388699661802E+00       18
 Si  2.014988761036E+01  2.027085246394E+01  1.841553619497E+01  0.000000000000E+00 -1.755747620077E+01 -1.980735589029E+01 -2.848629418751E+01 -1.799446175108E+01 -3.116909658438E+01 -1.766287815531E+01       19
 Si  1.758869115234E+01  2.165836001093E+01  1.870585461891E+01  0.000000000000E+00 -2.657459142567E+00 -2.126136468506E+01 -3.449662548819E+00 -1.836297838791E+01 -3.243639512178E+00 -3.272341661216E+00       20
 O   1.864551219270E+01  2.032644202331E+01  1.899943284857E+01  0.000000000000E+00 -1.709875029407E+01 -7.069634947915E+00 -5.578281359208E-01 -6.608094732112E+00 -5.474369362833E-01 -1.864023647790E+01       22
 O   2.094672600205E+01  2.154038446461E+01  1.792386393795E+01  0.000000000000E+00  2.082957771620E+01  1.968702856143E+01  2.135231899486E+00  1.638167702426E+01  2.495339046547E+00  2.141991603836E+01       23
 O   1.990545284643E+01  1.949812688018E+01  1.695397608395E+01  0.000000000000E+00  7.440508376014E+00  2.062332992194E-01  2.477277795732E+00  1.793236060143E-01  2.908541106009E+00  7.288252997196E+00       24
 O   2.087512150770E+01  1.922802965966E+01  1.952980389790E+01  0.000000000000E+00  2.150711982171E+01  7.272990849241E+01 -1.833233310683E+01  7.387136776419E+01 -1.959516250779E+01  1.981016195153E+01       25
 O   1.822779305067E+01  2.248828467830E+01  1.990152493438E+01  0.000000000000E+00  2.827513990327E+01  3.697987876134E+01  4.092524877225E+01  3.272619453937E+01  3.748340730811E+01  3.488405830020E+01       26
 O   2.198981317455E+01  1.719572647170E+01  2.099326510112E+01  0.000000000000E+00 -1.339562159283E+01  1.580397572063E+01  1.722269206992E+01  1.929415733036E+01  1.804025144046E+01 -1.047518880676E+01       27
 O   1.821381883036E+01  2.213765944510E+01  1.722789556550E+01  0.000000000000E+00 -1.536295817270E+01  4.556156721071E+01 -4.820754386542E+00  3.545677101291E+01 -5.096637989723E+00 -1.867263198697E+01       29
 Ca  4.779770591256E+00  1.072049784987E+01  1.436417095210E+01  0.000000000000E+00 -1.925433727668E+00 -1.095396360590E+01  6.679539246056E-01 -1.467698683789E+01  2.222659794143E-01 -4.318535323704E+00       32
 Si  1.396895161373E+01  1.977833843179E+01  1.300209411969E+01  0.000000000000E+00  1.813182877607E+01  8.649196416712E+00 -8.560512108517E+00  5.685900575401E+00 -9.197086125653E+00  2.567246675604E+01       37
 Si  1.261984286371E+01  2.203166444133E+01  1.411619022733E+01  0.000000000000E+00 -1.961688329611E+01 -3.890582738609E+01  2.442872244187E+01 -2.492785153824E+01  2.183922387080E+01 -3.424706589710E+01       38
 O   1.279091336385E+01  2.099403098642E+01  1.286738931146E+01  0.000000000000E+00  3.851055116218E+00 -1.621733711407E+01  9.614283348016E+00 -9.939720026936E+00  9.557141886618E+00  6.320828555434E+00       40
 O   1.382061120219E+01  1.882702149412E+01  1.432790992498E+01  0.000000000000E+00  1.581722515040E+00  7.778784783024E+00  7.787887822857E+00  5.919881046068E+00  7.512147288027E+00  2.154689351486E+00       41
 O   1.552217126668E+01  2.039265057092E+01  1.288501353438E+01  0.000000000000E+00 -1.656442719590E+01 -7.735462839808E-01  4.779600027893E+00 -4.887620814125E-01  5.757834093170E+00 -2.176194102680E+01       42
 O   1.361548072305E+01  1.884715362883E+01  1.174289398010E+01  0.000000000000E+00 -3.773561796379E+00 -7.849486224500E+00 -1.063181227320E+01 -4.890695239603E+00 -1.232721978945E+01 -5.223531974440E+00       43
 O   1.373593129052E+01  2.304077466467E+01  1.428621094979E+01  0.000000000000E+00  3.911003071869E+01  6.676772588138E+01 -1.153931629078E+01  4.139868691313E+01 -1.109484217101E+01  6.560351721764E+01       44
 O   1.107695467562E+01  2.251952332937E+01  1.392341012984E+01  0.000000000000E+00 -1.675333244751E+00  2.254527164057E+01  4.791220098365E+00  1.393932984056E+01  3.811719067067E+00 -3.405963750369E+00       46
 O   8.773297484088E+00  2.183230543218E+01  1.369592918139E+01  0.000000000000E+00 -1.099081723320E+01  1.380475518418E+01  1.806690520616E+01  8.660054246511E+00  1.157324427508E+01 -2.735059186351E+01       47
 O   1.688320929829E+01  1.568201708215E+01  1.069099820534E+01  0.000000000000E+00 -1.350973452167E+01  1.420707305468E+01  1.387689886796E-01  9.685475518551E+00  2.191437913459E-01 -1.254855541983E+01       48
 Ca  6.130665682762E+00  2.084758552505E+01  1.290494467276E+01  0.000000000000E+00  8.749337939534E-01 -2.478544329568E+00  6.577074176612E+00 -1.534253326537E+00  3.124526603561E+00  2.975249025483E+00       49
 Si  2.013354835781E+01  2.029748345299E+01  2.312512741795E+01  0.000000000000E+00 -4.361886620358E+01  3.321036421099E+01  3.806887082474E+01  3.783690257733E+01  3.314409636863E+01 -4.397402779036E+01       51
 Si  1.949336010535E+01  2.233818046120E+01  2.108302817871E+01  0.000000000000E+00 -2.416256828584E+00  2.865052936315E+01 -2.263995589757E+01  2.704069469522E+01 -2.093289490198E+01 -2.768880315442E+00       52
 O   1.901331182001E+01  2.104293967232E+01  2.202617957541E+01  0.000000000000E+00  3.223754649510E+01 -1.109063431301E+01  1.540152257323E+01 -1.160884870592E+01  1.329481357333E+01  3.567883136309E+01       54
 O   1.961878972637E+01  1.881011653258E+01  2.371490383425E+01  0.000000000000E+00 -9.160337832503E+00 -9.848539426375E+00 -1.759784633562E+01 -1.241657195477E+01 -1.455828998121E+01 -8.782754925784E+00       55
 O   2.157149624841E+01  2.016460017140E+01  2.256400221009E+01  0.000000000000E+00  4.584168345280E+01 -1.572768603580E+01 -1.823253130695E+01 -1.759913608278E+01 -1.743055053021E+01  4.285188228786E+01       56
 O   2.030829142547E+01  2.112135897110E+01  2.461007880393E+01  0.000000000000E+00  3.535877212023E+00 -1.638952429692E+01 -4.120335327887E+01 -1.909666347975E+01 -3.400109819885E+01  3.677440426091E+00       57
 O   1.595683641209E+01  2.151568969577E+01  1.893183338727E+01  0.000000000000E+00  2.263982919983E+01 -5.715999253270E+00 -2.030088796652E+01 -5.029555037967E+00 -1.711075423470E+01  3.052682419302E+01       58
 O   1.469492199994E+01  1.178453713770E+01  1.146856439251E+01  0.000000000000E+00  1.917240367078E+01 -9.371117200667E+00  3.356685064489E+01 -9.119854245421E+00  4.300993874459E+01  1.537523663469E+01       59
 H   5.124780854549E+00  6.091803625800E+00  1.674895016734E+01  0.000000000000E+00  3.969659674960E+00  3.603134722898E+00 -2.042085738999E+00  9.906544535423E+00 -6.248297232966E-01  4.718716348553E+00       70
 H   1.390616139494E+01  1.858404290018E+01  1.726018791120E+01  0.000000000000E+00 -4.128375086687E+00 -2.425471606293E+00 -3.388134249045E+00 -2.252690435701E+00 -2.729746740727E+00 -5.517115582086E+00       73
 H   1.491882655394E+01  1.115275160889E+01  1.492812864387E+01  0.000000000000E+00 -2.330882400315E+01 -7.243597970244E+00 -1.595634020610E+01 -9.695666696108E+00 -1.594639741185E+01 -1.742479701487E+01       83
 Si  2.178275374654E+00  2.134999821163E+01  2.094825216730E+01  0.000000000000E+00  6.641683734243E+00 -7.100854960698E+01 -6.412592383829E+00 -6.967237132558E+01  1.739261880912E+00 -5.947163850399E+01       89
 Si  2.211372184018E+00  2.087972177286E+01  1.787784044062E+01  0.000000000000E+00 -2.970768930573E+00 -3.567553778336E+01  2.256682197734E+01 -3.054645933803E+01  2.419797763162E+00  1.786710331569E+01       90
 O   1.389366295708E+00  2.106436186840E+01  1.940458113809E+01  0.000000000000E+00  5.579818280135E+01 -6.154551183097E+00 -4.774619932778E+01 -5.669599133697E+00 -7.855001348318E+00  2.746464563216E+01       92
 O   2.194097784628E+00  1.963399926756E+01  2.133966555991E+01  0.000000000000E+00 -2.145314760128E+00  4.678417033093E+01  3.851929350605E+00  5.084845602544E+01  1.025072727731E+00 -1.987763079342E+01       95
 O   1.282470534839E+00  1.966433980311E+01  1.692765488337E+01  0.000000000000E+00  1.766806582248E+01  5.866824295275E+01  3.439167427732E+01  5.050338731233E+01 -8.945551305100E-01  3.305460234994E+01       96
 O   3.769161765634E+00  2.031977601628E+01  1.811044388755E+01  0.000000000000E+00 -6.004535751083E+00 -1.345655123799E-01 -4.396841497349E+00 -1.199344500256E-01 -9.004408071984E-01 -3.261554235768E+01       97
 O   1.109283552193E+01  1.538868761877E+01  2.071156919517E+01  0.000000000000E+00 -2.603521956108E+01 -1.421640336744E+01 -2.604394754034E+00 -1.913379680876E+01 -1.394878503336E+00 -3.611771400734E+01       98
 O   3.360499575878E+00  1.238209421718E+01  1.982113162648E+01  0.000000000000E+00  5.538187658678E+00 -6.703463040956E-01  3.968483556054E+01 -1.073083607325E+00  6.564578830097E+00  1.479280920959E+01      101
 Ca  2.207604286830E+01  2.362313069289E+01  1.850876905803E+01  0.000000000000E+00 -1.089916195409E+01 -5.556894762563E+00  2.286930597728E+00 -4.353837904771E+00  2.727700462087E+00 -1.166297460195E+01      102
 O   1.657946049480E+01  3.887858015340E+00  1.058143095039E+01  0.000000000000E+00 -3.515023708760E+01 -5.196844047506E+00  1.960811733315E+01 -1.414404698722E+01  3.072287748478E+01 -8.242676596442E+00      105
 Si  5.154554076750E+00  1.626782015852E+01  1.967134689208E+01  0.000000000000E+00 -9.326722460336E+00 -1.680817012717E+01  5.867431009048E+00 -2.032474799764E+01  1.537464139779E+00 -2.943522201805E+01      107
 Si  8.082488087911E+00  1.698195437404E+01  2.035419502075E+01  0.000000000000E+00 -4.843777517992E+00 -1.242156729143E+01 -3.477883817698E+01 -1.488821589932E+01 -1.381039854390E+01 -1.017716424866E+01      108
 Si  7.293955812926E+00  1.985041325424E+01  1.979155737385E+01  0.000000000000E+00 -9.109400954214E+00  1.234850895566E+01 -4.071240692036E+01  1.231189599669E+01 -1.500409955142E+01 -2.479112543007E+01      109
 O   6.767393301415E+00  1.630039763661E+01  1.934275457138E+01  0.000000000000E+00  6.261336590141E+00  9.590914091865E+00  2.234263802360E+01  1.138099214080E+01  7.816953802463E+00  1.508147548253E+01      110
 O   4.176775961461E+00  1.701511708857E+01  1.846050662041E+01  0.000000000000E+00  4.280374704420E+00 -2.734107605024E+01  3.027777456084E+01 -2.966362869014E+01  6.850488101579E+00  1.743715187280E+01      111
 O   4.788659951211E+00  1.676018690940E+01  2.119968073511E+01  0.000000000000E+00  1.878660612449E+00 -2.596575988895E+00 -3.452824811725E+01 -3.284365637842E+00 -7.757761091280E+00  7.449676963035E+00      112
 O   4.692042910799E+00  1.456369215610E+01  1.958132326228E+01  0.000000000000E+00  1.658818695646E+00  2.541912263035E+01  1.695762201748E+00  3.417677687317E+01  4.086689790485E-01  5.295905041803E+00      113
 O   8.530251857135E+00  1.631011554476E+01  2.176495382104E+01  0.000000000000E+00 -1.026206644035E+01 -6.761985545619E+00  1.803384115666E+01 -9.023498499143E+00  7.067931698027E+00 -1.962140065421E+01      114
 O   1.210793067567E+01  1.384004733300E+01  3.587203198096E+01  0.000000000000E+00 -4.645427200374E+01 -6.751361552505E+00 -1.422854906116E+01 -1.749886049515E+01 -4.802579506489E+00 -5.309985170662E+01      115
 O   7.557919864578E+00  1.847926231969E+01  2.065131683453E+01  0.000000000000E+00  1.092961735859E+00  1.696889698766E+01 -1.068615878061E+00  1.896342299613E+01 -3.910894998666E-01  2.672312882938E+00      117
 O   5.736784734967E+00  2.032584517091E+01  2.022546290379E+01  0.000000000000E+00  8.545075777938E+00 -4.783810572396E-02 -1.007251389576E+01 -4.760184998812E-02 -2.856984991386E+00  3.027582439644E+01      118
 O   6.943457241566E+00  1.029920915585E+01  2.183154723282E+01  0.000000000000E+00 -7.040956578214E-01  2.384912412682E+00 -3.578835363468E+01  5.055371455784E+00 -1.138237709670E+01 -1.044382962743E+00      119
 Ca  2.299507894212E+01  1.915130810091E+01  2.099864119640E+01  0.000000000000E+00  2.467469658500E+01  1.141686132924E+01  1.431386234250E-01  1.251813053076E+01  1.567474730645E-01  2.055016718078E+01      120
 Ca  2.991376054993E+00  1.211024847852E+01  1.777515287527E+01  0.000000000000E+00 -2.939468791064E+00 -9.670265562494E-01 -6.314296623101E+00 -1.419380031902E+00  6.713892956822E-02 -3.513227395427E+00      121
 Si  1.073797397471E+00  1.725364340210E+01  1.382711094940E+01  0.000000000000E+00 -2.461426479106E+02  1.001962822314E+01  2.710146765230E+01  8.029753941489E+00 -1.197258756968E+02 -7.006459191901E+01      125
 Si  2.143918731407E+00  1.947337072125E+01  1.555433722063E+01  0.000000000000E+00 -7.352943031780E+00  1.996200118497E+00 -3.992378478675E+01  1.594463036082E+00 -7.557193456014E+00  1.509188563911E+00      126
 Si  3.005623091020E+00  2.104499035049E+01  1.290818605854E+01  0.000000000000E+00 -2.284834322340E+01  4.735133553801E+01  1.646837558647E+00  2.904348441438E+01 -9.374857343129E-01 -9.469960662770E+01      127
 O   1.015538150580E+00  1.850178695634E+01  1.489008581390E+01  0.000000000000E+00  2.604881770071E+01 -9.789126629389E+00 -1.190714354595E+01 -7.878208515678E+00  1.534273331452E+01 -9.351121871804E+00      128
 O   2.199422457716E+00  1.729259272730E+01  1.280415831705E+01  0.000000000000E+00  3.405387153858E+01 -5.699962249857E+00 -1.529674398503E+01 -4.220490252637E+00 -2.935024774733E+00  5.067429024204E+01      129
 O   1.105021084261E+00  1.599238211688E+01  1.493684113171E+01  0.000000000000E+00  2.085473748298E+01 -1.444972953792E+01  1.561598367551E+01 -1.349600784465E+01  1.883289054958E+01  4.692341569209E+00      131
 O   3.401724084466E+00  1.840438774651E+01  1.581719459379E+01  0.000000000000E+00  4.085132334954E-01  1.135831316464E+01 -4.398527594993E+00  9.761620547057E+00 -1.090518095745E+00  3.086456141337E+00      132
 O   2.741192183020E+00  4.581143525299E+00  9.025756795372E+00  0.000000000000E+00  7.761361296117E+00  1.510372804042E+01  3.156097481076E+01  2.975732483461E+01  8.815745143205E+00  6.426300659117E+00      133
 O   2.239278986173E+00  2.084248401073E+01  1.441697819202E+01  0.000000000000E+00  5.224152574731E+00 -2.214704185742E+01  2.521367058170E+01 -1.531935537586E+01  5.230531351530E+00 -2.487605930057E+00      134
 O   1.817902674171E+00  2.135917833865E+01  1.174524972460E+01  0.000000000000E+00  4.301489721264E+01 -1.347055098751E+01  1.548829612758E+01 -7.407353539899E+00 -1.793630722518E+00  3.999330856698E+01      135
 O   8.795351962601E+00  1.446764398792E+01  1.302444897311E+01  0.000000000000E+00 -6.763860990198E+00  1.578225531351E+01 -1.422058679399E+00  1.420792350041E+01 -9.603098467048E-01 -1.112600532714E+01      136
 Si  8.733870678620E+00  1.419128220449E+01  2.538510496212E+01  0.000000000000E+00 -3.626807399637E+01 -1.817905475363E+00  7.471237855073E-02 -3.251835925627E+00  2.570516266637E-02 -5.893039776235E+01      139
 Si  8.455709062511E+00  1.659504241723E+01  2.341797816063E+01  0.000000000000E+00 -2.196772693192E+01 -8.668315777612E+00 -4.956560569069E+00 -1.223223324569E+01 -1.789703356766E+00 -4.311351745314E+01      140
 O   8.066046446005E+00  1.531335316892E+01  2.438351589051E+01  0.000000000000E+00 -1.784224772464E+00 -1.921654401516E+01 -2.273927099318E+01 -3.059858289596E+01 -7.522131623793E+00 -3.387342765305E+00      142
 O   7.821992922882E+00  1.286137190878E+01  2.585030039948E+01  0.000000000000E+00 -5.327964149946E+00 -2.229091523844E+00 -3.434414336425E+01 -4.480290743321E+00 -1.039212860919E+01 -8.760545953529E+00      143
 O   7.195763852483E+00  1.757936316135E+01  2.379948919942E+01  0.000000000000E+00  2.089214691426E+00  3.221245586420E+01  4.863905673391E+00  4.361022571695E+01  1.470599487796E+00  5.103984029428E+00      148
 O   1.253037769083E+01  1.577313032030E+01  2.037346675690E+00  0.000000000000E+00 -1.090238559965E+01 -3.417996954119E+01  8.242236161210E+00 -7.749703655582E+00  6.886918583722E+00 -1.372382805279E+01      150
 Ca  5.064515426154E+00  1.195133624661E+01  7.366613321071E+00  0.000000000000E+00 -2.009407035687E+00  1.705268173989E+00  4.257824848386E+00  1.051100143724E+00  2.927236531451E+00 -4.741835520094E+00      151
 Ca  1.239985846887E+01  2.181809398113E+01  1.809265083015E+00  0.000000000000E+00 -6.285113889459E+00  5.119028699204E+00 -2.153639908297E+01 -2.727367406042E+00 -4.586136050832E+00 -1.105893312141E+01      152
 H   7.072466372801E+00  1.884290275826E+01  1.473285291177E+01  0.000000000000E+00  2.182683156331E+01 -5.943382709729E+01 -2.552625296988E+01 -4.647000750580E+01 -1.225380900999E+01  5.815239592373E+01      155
 H   1.188024972243E+01  1.476984710105E+01  3.578892424102E+01  0.000000000000E+00  1.065083992289E+01  1.530218508274E+01  2.442207989828E+00  3.707883628730E+01  8.106988798508E-01  1.324141165668E+01      156
 H   1.393365076334E+01  1.177770942148E+01  1.210142872962E+01  0.000000000000E+00  1.543923970724E+01  5.741089077574E-01 -1.274066619191E+01  5.898887280745E-01 -1.466967224919E+01  1.305033993236E+01      159
 H   1.590256376084E+01  3.478116851109E+00  1.139959543196E+01  0.000000000000E+00  4.207663533687E+01  5.371310444864E+00 -3.141801387943E+01  1.760457415092E+01 -4.382848250525E+01  9.202758536550E+00      160
 H   1.580152395858E+01  1.520023836678E+01  1.482272843360E+01  0.000000000000E+00  3.737624030856E+00  1.368300285050E+01  3.280280492040E+00  1.334317466050E+01  3.496888647595E+00  3.595398541517E+00      164
 H   1.967893927713E+01  6.224568387382E+00  7.182245830241E+00  0.000000000000E+00 -8.163427267271E+00  7.383820981847E-02 -2.508301284736E+01  8.519854575880E-02 -6.872600832350E+01 -2.582141780355E+00      168
 H   5.404202725414E+00  1.943807873312E+01  3.326562259261E+01  0.000000000000E+00  4.132299708373E+00  1.747618928823E+01  2.915799666408E+01  2.990811618789E+01  4.736893909048E+00  1.486324091849E+01      169
 Si  1.189489235399E+01  5.971951096980E-01  1.926308935333E+01  0.000000000000E+00  1.585198572842E+00 -1.589835508616E+02  5.629178623229E+01 -2.883757000097E+01  3.475998711136E+01 -1.042482803478E+02      177
 Si  1.079161389500E+01  3.119063881006E+00  1.841488129408E+01  0.000000000000E+00  1.482944531300E+01  4.203929474133E-01 -1.967886001296E+01  5.027923562609E+00 -1.153233929463E+01  4.014483283493E+00      178
 Si  8.253931212687E+00  3.774520174984E+00  2.021678851957E+01  0.000000000000E+00 -4.989266711699E+00  8.777414531861E+00 -7.990014922370E+01  4.701289835866E+01 -3.262092468037E+01 -2.281590114628E+00      179
 O   1.132910390653E+01  1.591514128919E+00  1.811066005847E+01  0.000000000000E+00 -4.897691494388E+00  6.350290979430E+00 -2.083002250767E+01 -2.185999420546E+01 -1.303019815969E+01  2.974717699730E+00      180
 O   1.162112804508E+01  1.385141222245E+00  2.066423025228E+01  0.000000000000E+00 -1.438833275204E+01  6.256389861505E+00  2.572901697779E+01  6.016013818487E+00  1.446945746939E+01  2.683719240864E+00      182
 O   1.029271784526E+01  3.711973682531E+00  1.692996113983E+01  0.000000000000E+00  9.000167785772E+00  1.979606176786E+00 -8.354618950144E-01  8.072695302007E+00 -5.079263611315E-01  3.290795930449E+00      184
 O   1.207288322683E+01  3.645252188817E+00  1.919862407613E+01  0.000000000000E+00  5.937426680394E+00  6.537156285520E+00  3.822364416839E+00  3.160351178377E+01  2.403659713940E+00  1.884034081383E+00      185
 O   9.511046718541E+00  3.293700099568E+00  1.929659981190E+01  0.000000000000E+00 -1.571597960384E+01 -1.161971995883E+00  2.586750647508E+01 -9.004218655206E+00  1.274976239207E+01 -5.586310231443E+00      187
 O   6.869889385362E+00  3.433004928258E+00  1.947528855105E+01  0.000000000000E+00 -1.606198291571E+00  6.542460476819E-01 -9.744903036103E+00  1.938852597416E+00 -3.437505213523E+00 -6.506281428126E-01      188
 Ca  1.227333167181E+01  3.265684030748E+00  2.158782108266E+01  0.000000000000E+00 -6.344357573183E+00 -1.701705522409E+00 -1.629970296514E+01 -3.164293746250E+00 -9.266875979615E+00 -1.815460841826E+00      190
 O   1.526770371143E+01  1.761887054846E+01  7.448892701873E+00  0.000000000000E+00 -1.767884868837E+00 -1.115558919376E+01 -1.121933094427E+01 -4.716351522189E+00 -2.299582334627E+01 -2.040132244988E+00      193
 O   4.128728065682E+00  1.191955666780E+01  1.223615562687E+01  0.000000000000E+00  1.062639402779E+01  2.592467475283E+00  1.797114533889E+01  2.661326790018E+00  5.957880002174E+00  3.163782794397E+01      194
 Si  1.861827749667E+01  1.504416206586E+00  1.972185728936E+01  0.000000000000E+00  4.122142335515E+00  2.573654357748E+00  2.842632540031E+01 -6.248059286635E+00  2.683566799762E+01  1.810051644285E-01      196
 Si  1.624928506645E+01  3.981975565529E+00  1.928620473174E+01  0.000000000000E+00  5.693649056032E+01 -3.296568653820E+00  6.609260984006E+00 -1.579583072624E+01  5.568527727539E+00  1.400949458322E+01      197
 O   2.002988579149E+01  1.945733924496E+00  2.054844844713E+01  0.000000000000E+00 -3.505549762875E+01  1.629865411298E+00  5.960788811662E+00 -2.302866014187E+01  5.810361761959E+00 -1.343176315518E+00      202
 O   1.768966533821E+01  2.783948775714E+00  1.970989712282E+01  0.000000000000E+00 -3.080397541491E+01  5.499124396121E+00 -1.142911975458E+01  1.644552018796E+01 -1.025765392427E+01 -5.032221835381E+00      205
 O   1.580873355951E+01  4.862521755897E+00  2.052737623434E+01  0.000000000000E+00 -5.223684086432E+00  3.633780037960E+00  1.368894207760E+01  1.534018226275E+01  1.054225515944E+01 -1.606724372993E+00      206
 Ca  1.346711230459E+01  5.433053033509E+00  1.914361221904E+01  0.000000000000E+00  4.864153665818E+00  1.217132965397E-01 -4.465804801521E+00  4.288623977136E-01 -3.141595959234E+00  1.962351262231E+00      209
 O   2.234351575365E+01  1.946065549061E+01  1.510364938525E+01  0.000000000000E+00 -5.217240146340E-01 -7.467645038732E+01  1.247877046886E+01 -5.795729360345E+01  1.846041294030E+01 -4.544088505100E-01      210
 O   1.423823078377E+01  1.632464546219E+01  4.200539440521E+00  0.000000000000E+00  3.665380681767E+00 -9.262106192861E+00  3.028528079332E+00 -2.385523898450E+00  1.035110553544E+01  4.202491238029E+00      212
 Si  1.421665145928E+01  3.516699774519E+00  1.540941096110E+01  0.000000000000E+00 -8.241603093102E+00  1.939939017587E+00  1.961828744573E+00  1.166898986276E+01  1.809974148578E+00 -2.023608732909E+00      213
 Si  1.132424527930E+01  4.484349964828E+00  1.585327599746E+01  0.000000000000E+00  5.554512308090E+00 -5.379009699147E+00  8.101081320069E+00 -1.901611739102E+01  5.786730257563E+00  2.199561777327E+00      214
 Si  1.003802579303E+01  6.265571450988E+00  1.364573272610E+01  0.000000000000E+00 -4.198954381659E+00 -3.096733478305E+00 -1.726642435168E+00 -6.744348492307E+00 -1.270146620006E+00 -2.620918618877E+00      215
 O   1.253992214917E+01  3.423534597730E+00  1.565537997177E+01  0.000000000000E+00  7.398431357909E+00 -3.366740906589E+00  2.022568173338E+00 -1.610055827384E+01  1.620072299796E+00  1.619699637761E+00      216
 O   1.520700042895E+01  3.975578385068E+00  1.660702034714E+01  0.000000000000E+00 -2.120547393890E+00 -3.388152921553E+00  9.506045758332E+00 -1.583550022195E+01  8.704658566247E+00 -4.694162041493E-01      217
 O   1.441567563434E+01  4.819856902178E+00  1.455839849066E+01  0.000000000000E+00  5.501887829300E+00  3.851281823316E+00 -3.754506835408E+01  1.163281330165E+01 -3.717699631651E+01  1.839546941933E+00      218
 O   1.470754888499E+01  1.975378193542E+00  1.511795643994E+01  0.000000000000E+00 -5.174941002178E+00  1.362198457076E+01 -7.407572285629E+00  1.181454909574E+01 -7.206478728971E+00 -7.426416826876E-01      219
 O   1.207899174080E+01  5.672637327162E+00  1.664766066921E+01  0.000000000000E+00 -6.764033093759E-01  6.668136013376E+00  1.132338124645E+01  1.956918083152E+01  8.215870762355E+00 -3.176581906271E-01      220
 O   1.080556713480E+01  4.861584244273E+00  1.438057451700E+01  0.000000000000E+00 -9.705374645785E+00  3.996567788029E+00  1.210970386211E+01  1.182185435863E+01  9.099234381067E+00 -4.366591394427E+00      222
 O   1.121283071258E+01  6.826166899106E+00  1.283305977801E+01  0.000000000000E+00  1.207131199467E+01  5.785982637968E+00 -1.298114175863E+01  1.087753378507E+01 -1.134221670540E+01  7.348794651325E+00      223
 O   2.126101923730E+01  2.153840813668E+01  1.284371967329E+01  0.000000000000E+00 -6.055440574288E+01  3.540667222604E+01  1.928894630220E+01  2.111360179218E+01  3.193020938095E+01 -6.134444876828E+01      224
 Ca  1.580140866814E+01  7.406081275254E+00  6.141702883448E+00  0.000000000000E+00  4.747819037524E+00  3.827567322583E+00 -5.638847504127E+00  3.174118725951E+00 -1.450765944249E+01  2.225291074396E+00      225
 Ca  1.698720884004E+01  4.656836899521E+00  1.540247539265E+01  0.000000000000E+00 -5.549301473141E+00  4.263483444855E+00  3.746055132791E+00  1.410145991008E+01  4.131480118927E+00 -1.521273571782E+00      226
 Si  2.149728193712E+01  2.274762720941E+00  2.018274861914E+01  0.000000000000E+00  5.650938517535E+01 -4.748583488727E+00 -5.631674610485E+01 -2.132735994116E+01 -5.998474200137E+01  7.303367914449E+00      228
 Si  2.305211967497E+01  4.757344377151E+00  2.136261385531E+01  0.000000000000E+00 -6.537643251961E+01  8.489315721539E+00  5.038588934868E+01  3.812084206601E+01  5.437076001387E+01 -1.349195683653E+01      229
 O   2.276693684022E+01  1.059954535604E+00  2.036379911147E+01  0.000000000000E+00 -3.785186362135E+01  3.273010132554E+01  7.563588857389E+00  3.468000734284E+01  8.456170131074E+00 -1.336965243882E+01      230
 O   2.210096674848E+01  3.479307860931E+00  2.099536995540E+01  0.000000000000E+00  2.793975211573E+01  5.553730472561E+00  4.884830567190E+01  3.429453714615E+01  5.142061233823E+01  4.365260919712E+00      236
 O   2.322481839211E+01  4.830056678130E+00  2.320272730460E+01  0.000000000000E+00 -7.564994391493E+00 -1.810672696972E+01 -6.637254217219E+01 -8.698147377019E+01 -6.643573481409E+01 -1.573289016247E+00      237
 H   1.438130234795E+01  1.558241343876E+01  4.854788944239E+00  0.000000000000E+00 -6.584583989835E+00  1.579744927599E+01 -3.495109039487E+00  4.921784574236E+00 -1.035353347246E+01 -7.134521448014E+00      243
 H   1.859359910870E+01  1.873601992143E+01  7.191747042518E+00  0.000000000000E+00  4.450694190492E+00  1.441242336326E-02  3.299407779352E+00  5.532151627341E-03  8.530314704160E+00  4.484785034341E+00      247
 H   1.353621680316E+01  8.678108371055E+00  7.702546084559E+00  0.000000000000E+00 -1.964846009343E+01  2.751699267685E+00 -1.976229481539E+00  2.442362956757E+00 -3.472964708193E+00 -1.259668550635E+01      248
 H   6.093799712855E+00  1.061374706159E+01  1.017536505289E+01  0.000000000000E+00  1.307088136177E+00  9.869834002373E+00  1.008348287744E+01  9.462178003943E+00  6.038773522497E+00  2.276593179674E+00      249