     8448
Lattice="     49.70      0.00      0.00      0.00     49.70      0.00      0.00      0.00     49.70" pbc="T T T" config_type=md Properties=species:S:1:pos:R:3:charge:R:1:forces:R:3:id:I:1
 Si  1.067029117810E+01  1.775276413895E+01  1.565475953400E+01  0.000000000000E+00 -2.410172903513E+00  7.776104209338E-01 -2.550628661852E+01  6.857131686971E-01 -1.738509649417E+01 -4.009940345206E+00        1
 Si  1.211805831610E+01  2.027311758464E+01  1.676861067354E+01  0.000000000000E+00  3.264192054863E+01  1.292624741181E+01  4.187195612250E+01  1.069175519816E+01  3.025932296838E+01  5.460887183482E+01        2
 Si  1.059260496074E+01  2.253264826436E+01  1.760517432075E+01  0.000000000000E+00  1.541891100128E+01 -2.077357478294E+01 -3.319863078956E+00 -1.623077771543E+01 -1.997480824583E+00  3.279919335224E+01        3
 O   1.110376088946E+01  1.920362319530E+01  1.632155680343E+01  0.000000000000E+00 -1.874964852949E+01 -1.330893765082E+01 -4.846872794881E+00 -1.131154155921E+01 -3.297388675857E+00 -3.242695776585E+01        4
 O   9.274056173498E+00  1.819887018981E+01  1.485702365277E+01  0.000000000000E+00  1.040278664786E+01 -3.331998083039E+01  5.956072839099E+00 -2.720145471361E+01  3.717901739556E+00  2.041382543679E+01        5
 O   1.172728834844E+01  1.722161552689E+01  1.455850241903E+01  0.000000000000E+00 -1.346574262183E+01 -1.804174681175E+01 -1.343037315009E+00 -1.525181038864E+01 -1.081854809135E+00 -1.977454935250E+01        6
 O   1.062792285273E+01  1.684180330301E+01  1.696570642609E+01  0.000000000000E+00  1.260885297423E+01 -2.333585359541E+01 -3.274697363277E+01 -2.350753266612E+01 -2.051387078667E+01  1.998093367925E+01        7
 O   1.270864311870E+01  2.109826277835E+01  1.557966749060E+01  0.000000000000E+00  8.041697301502E+00  4.549889060341E+01 -2.998767257883E+01  3.359791250301E+01 -2.446153802671E+01  1.335042940984E+01        8
 O   1.356469769998E+01  1.968878324763E+01  1.761183656356E+01  0.000000000000E+00 -2.280672301493E+01 -1.071482249865E+00 -1.221714339315E+01 -9.584528423129E-01 -9.409686280436E+00 -3.310332717777E+01        9
 O   1.165245426417E+01  2.131563426615E+01  1.794397508914E+01  0.000000000000E+00 -9.569410951271E+00 -2.670350191906E+01  7.721158021309E+00 -2.247960193186E+01  5.013963754561E+00 -1.750515894382E+01       11
 O   1.929081545752E+01  1.769465319346E+01  2.103760160809E+01  0.000000000000E+00 -8.400211913628E+01 -1.954347965068E+01 -1.826713925643E+01 -2.323571614722E+01 -1.675038908414E+01 -7.705160877753E+01       13
 Ca  1.936462224637E+00  1.635243397250E+01  1.738121970467E+01  0.000000000000E+00 -5.030222843438E+00 -5.811164704554E+00  1.709740141594E+01 -6.176764305531E+00  5.793009175693E+00  1.576898382328E+01       14
 Ca  2.063925879919E+01  1.437707404884E+01  1.844903901650E+01  0.000000000000E+00  3.768259398369E+00 -1.557427931255E+00  1.869131360685E+01 -1.998532425409E+00  2.091029557061E+01  2.624926841254E+00       15
 O   6.735770317525E+00  3.974369192553E+00  1.587605436239E+01  0.000000000000E+00 -2.339298774643E+01 -4.432434429436E+00  1.587644426111E+01 -1.716355037456E+01  6.735935740756E+00 -1.384937773299E+01       16
 O   9.311109805974E+00  1.667124484878E+01  1.921949925972E+01  0.000000000000E+00  1.234281740960E+01 -2.340283931378E-01 -4.694583322078E+01 -2.698003999979E-01 -2.274345455856E+01  2.209942052528E+01       18
 Si  2.021439033841E+01  2.000376925345E+01  1.820604328193E+01  0.000000000000E+00 -1.825081116445E+01  1.674945770377E+01 -2.125542131848E+01  1.524419463352E+01 -2.360015170158E+01 -1.806064932507E+01       19
 Si  1.756398200011E+01  2.134207945347E+01  1.880311377197E+01  0.000000000000E+00  3.305611203681E+01  1.395850429327E+01 -1.847879164836E+01  1.229792742948E+01 -1.726103281783E+01  4.016664156841E+01       20
 O   1.861043792115E+01  1.991216197540E+01  1.859335202793E+01  0.000000000000E+00 -2.699211095367E+01  3.941536139559E+01  1.573527465214E+01  3.680482765464E+01  1.574973418703E+01 -2.888009877278E+01       22
 O   2.055020503651E+01  2.160124791780E+01  1.802305562379E+01  0.000000000000E+00  2.143479609916E+01 -6.900975044662E+00  1.319321342648E+01 -5.757845915273E+00  1.504313400924E+01  2.253108150420E+01       23
 O   2.024759791491E+01  1.964277373173E+01  1.656565493312E+01  0.000000000000E+00  5.853709514527E-02 -2.830254848964E+01  9.952440725996E+00 -2.386884145847E+01  1.216450655923E+01  5.678850991034E-02       24
 O   2.094936337774E+01  1.891159444949E+01  1.936729900651E+01  0.000000000000E+00  2.855326628112E+01  1.311992315821E+02 -7.108995283594E+01  1.343606830329E+02 -7.689710650752E+01  2.577585687834E+01       25
 O   1.819544632982E+01  2.248778965891E+01  1.998920895293E+01  0.000000000000E+00 -1.317814642599E+01 -2.991428350066E+01 -3.450573600605E+01 -2.659055748215E+01 -3.140931034578E+01 -1.628689835634E+01       26
 O   2.168776755902E+01  1.738388387403E+01  2.143372561577E+01  0.000000000000E+00  7.906161685818E+00 -2.573913160160E+00 -2.723402807087E+01 -3.173545614632E+00 -2.755681774997E+01  6.337203507072E+00       27
 O   1.755105332782E+01  2.244210537500E+01  1.734242111606E+01  0.000000000000E+00  1.966781583832E+01 -4.276335929475E+01  1.000339289204E+01 -3.304592741343E+01  1.012373537307E+01  2.514875815688E+01       29
 Ca  4.496067362116E+00  1.059345043981E+01  1.423585178338E+01  0.000000000000E+00  1.221901990770E+00  2.023632695133E+00  1.160972774855E+00  2.719428884442E+00  3.666666301926E-01  2.878995606381E+00       32
 Si  1.374671977124E+01  1.967283314464E+01  1.266449138609E+01  0.000000000000E+00  1.626691982857E-02 -3.055152708324E+00  1.045616375800E+01 -1.966770869924E+00  1.134968224790E+01  2.327947356823E-02       37
 Si  1.275381680108E+01  2.218650930460E+01  1.421844502529E+01  0.000000000000E+00  1.438197513761E+01  1.881442820184E+01  2.124026038688E+01  1.205741333156E+01  1.905232177637E+01  2.501884966561E+01       38
 O   1.325322267292E+01  2.119398570136E+01  1.309803377195E+01  0.000000000000E+00 -6.960050744979E+00  7.475281454399E+00 -1.322666805187E+01  4.619777059596E+00 -1.338338104515E+01 -1.113021486248E+01       40
 O   1.341015272731E+01  1.873523999983E+01  1.399542707397E+01  0.000000000000E+00  8.412620754110E+00  4.342990924377E+00 -2.184233852413E+01  3.244261229936E+00 -2.092891442198E+01  1.175321952411E+01       41
 O   1.537196745831E+01  1.984650185567E+01  1.266505181692E+01  0.000000000000E+00 -4.416217676119E+00  6.070827108853E-01 -1.047514934666E+01  3.874100356038E-01 -1.271401469220E+01 -5.701708160771E+00       42
 O   1.294890079077E+01  1.943455463561E+01  1.124771422336E+01  0.000000000000E+00  1.882458974378E+00 -1.908926414304E+01  8.174714946253E+00 -1.104787795969E+01  9.411118626392E+00  2.825317173867E+00       43
 O   1.383914101131E+01  2.347399839502E+01  1.422053774024E+01  0.000000000000E+00 -2.313940308572E+01 -2.558644146482E+01 -5.950554533116E-01 -1.550025480815E+01 -5.790959862669E-01 -3.924913478748E+01       44
 O   1.119046695005E+01  2.274558648748E+01  1.407894028588E+01  0.000000000000E+00 -7.736723402951E+00 -1.938648608816E+01 -4.124029660610E+00 -1.199974246162E+01 -3.277932619998E+00 -1.572555569638E+01       46
 O   8.199842032520E+00  2.207320150692E+01  1.442995103827E+01  0.000000000000E+00  8.700656931286E+00 -3.019975315209E+01 -1.933204599506E+01 -1.974253527364E+01 -1.098546508609E+01  2.342134798758E+01       47
 O   1.679158089564E+01  1.525357980142E+01  1.025923111987E+01  0.000000000000E+00 -2.535216832431E+00  1.477792917404E+01  2.610017037283E+00  9.939318693932E+00  4.271890525560E+00 -2.303007233669E+00       48
 Ca  6.098936722628E+00  2.079850147539E+01  1.287329368476E+01  0.000000000000E+00  9.992357353289E+00  2.399767569252E+01  3.437623144593E+00  1.485343197956E+01  1.628631067427E+00  3.407578543714E+01       49
 Si  2.016935125999E+01  2.031281948930E+01  2.287151038460E+01  0.000000000000E+00  3.828854244773E+01 -1.940574308055E+01  5.459595536126E+01 -2.185017469493E+01  4.814570540114E+01  3.856089574839E+01       51
 Si  1.945944268411E+01  2.250296096120E+01  2.100556197057E+01  0.000000000000E+00 -8.396252435408E+01 -1.992026103079E+00  5.788822088417E+01 -1.859472085801E+00  5.362734488887E+01 -9.709452826656E+01       52
 O   1.921319852678E+01  2.109718785906E+01  2.192275617513E+01  0.000000000000E+00 -2.226655764480E+01  2.513341167882E+01 -5.237699013645E+01  2.611692419696E+01 -4.590342116144E+01 -2.444995032723E+01       54
 O   1.944554891942E+01  1.885946684632E+01  2.332549266420E+01  0.000000000000E+00  9.633875705464E+00  1.414320623608E+01  2.316272656063E+01  1.749239551660E+01  1.930985719899E+01  9.343514046412E+00       55
 O   2.174043632541E+01  1.985631332560E+01  2.250640421261E+01  0.000000000000E+00 -3.199028301732E+01  2.747685505555E+01 -1.378782171788E+01  3.114400927458E+01 -1.331857622800E+01 -2.921786267115E+01       56
 O   2.036579072187E+01  2.135764584779E+01  2.413575654961E+01  0.000000000000E+00  1.633807714989E+00 -6.907298669896E+00  2.227667330429E+01 -7.805770369083E+00  1.879709324884E+01  1.713377449306E+00       57
 O   1.603582665804E+01  2.102948531774E+01  1.882434082873E+01  0.000000000000E+00 -3.787262327478E+00 -5.688680181863E+00  1.099456495101E+01 -5.092167163916E+00  9.365902335656E+00 -4.966639962411E+00       58
 O   1.447603354315E+01  1.169595932580E+01  1.146048715863E+01  0.000000000000E+00 -1.376942116874E+01 -4.329069931601E+01 -1.767029372773E+00 -4.241913722327E+01 -2.231979855477E+00 -1.112504951369E+01       59
 H   3.811742365381E+00  6.081676194309E+00  1.574002051411E+01  0.000000000000E+00  8.956237196540E+00  7.164887923671E+00  9.741755952213E+00  1.854348690997E+01  2.311064307275E+00  1.456643877341E+01       70
 H   1.313818334295E+01  1.948914131729E+01  1.846774581160E+01  0.000000000000E+00  8.302430910535E+00 -3.703167970845E+00  6.171870469514E+00 -3.509090712096E+00  4.390745174026E+00  1.231580082792E+01       73
 H   1.643766903541E+01  1.167277472570E+01  1.627180368793E+01  0.000000000000E+00  2.093372562588E+01 -4.298511265231E+00  3.460461907455E+01 -5.992108397692E+00  3.495735852969E+01  1.486553007450E+01       83
 Si  2.288326447886E+00  2.113066834385E+01  2.126521116503E+01  0.000000000000E+00  7.883786441199E+00  2.838064684891E+01 -3.942869134008E+01  2.856135160618E+01 -3.142644671917E+00  1.310861324437E+01       89
 Si  2.477135674808E+00  2.074012818977E+01  1.805631585030E+01  0.000000000000E+00 -5.222362153273E+00  3.107717777649E+01  4.606518420512E+00  2.705573140791E+01 -6.462487943795E-01 -1.690110305516E+01       90
 O   1.628081929398E+00  2.102688577955E+01  1.947268157567E+01  0.000000000000E+00  3.474477282269E+01  1.050890247741E+01  2.048788688046E+01  9.732135980466E+00  2.246250073977E+00  4.916211546888E+00       92
 O   2.287787708871E+00  1.958138380014E+01  2.151848366253E+01  0.000000000000E+00  2.157158053725E+00 -1.211066939064E+01  8.301714446616E+00 -1.330872445404E+01 -5.590040917246E-01  1.913635310281E+01       95
 O   1.466881740752E+00  2.007592518266E+01  1.699947083377E+01  0.000000000000E+00  1.127439503442E+01 -3.489029806869E+01 -2.654730494938E+01 -2.954367477483E+01 -5.858461710385E+00 -2.899809916219E+00       96
 O   3.844546495364E+00  1.998536093704E+01  1.841247826775E+01  0.000000000000E+00  1.956852843827E+00  3.970128988602E+00 -5.594664922924E+00  3.657672931356E+00 -1.245914819153E+00  7.858364869925E+00       97
 O   1.125477829355E+01  1.560372607449E+01  2.066294811798E+01  0.000000000000E+00 -1.114552845294E+01 -1.774447913459E+01  1.614661811379E+01 -2.349780110137E+01  8.794805369672E+00 -1.545226111072E+01       98
 O   3.500332575425E+00  1.206618186972E+01  2.017284968848E+01  0.000000000000E+00  1.879790403561E+00  6.447027093777E+00 -5.313665987431E+00  1.077846413261E+01 -9.299174838551E-01  6.927457500948E+00      101
 Ca  2.214223256721E+01  2.364934270692E+01  1.856317807120E+01  0.000000000000E+00  1.024288128872E+01 -3.243336238478E+01 -2.601020052063E+00 -2.545805559409E+01 -3.102507053688E+00  1.094006257806E+01      102
 O   1.658511292430E+01  3.796317968969E+00  1.054092739096E+01  0.000000000000E+00 -9.957622234939E+00 -6.915356369634E+00  2.419850871827E+00 -1.920130768043E+01  3.807397440536E+00 -2.279291096253E+00      105
 Si  5.109657629336E+00  1.613889323470E+01  1.973950654935E+01  0.000000000000E+00  1.790093590591E+00 -3.546035409497E+01 -1.309741695030E+01 -4.337161673485E+01 -3.390323677918E+00  5.654024483517E+00      107
 Si  8.045615701898E+00  1.685243275636E+01  2.008920704287E+01  0.000000000000E+00 -2.202290977732E+00  6.780933857707E+01  1.129022369446E+01  8.083318662706E+01  4.521671803186E+00 -4.612942251693E+00      108
 Si  7.585148380392E+00  1.997740051232E+01  1.954530153632E+01  0.000000000000E+00  7.888825292302E+00 -1.792050134892E+01  1.007039561037E+01 -1.753289184599E+01  3.908123126778E+00  2.077721021826E+01      109
 O   6.790544407410E+00  1.628432800911E+01  1.938657309403E+01  0.000000000000E+00 -1.458824427835E+01 -2.043134173809E+01 -1.863007546493E+01 -2.432361346400E+01 -6.525565614119E+00 -3.498390418396E+01      110
 O   4.573852503442E+00  1.683248420858E+01  1.842101079751E+01  0.000000000000E+00 -5.984429865643E+00  9.207775043760E+00 -1.818033406266E+01  1.007673742036E+01 -4.514093573906E+00 -2.202362693921E+01      111
 O   4.873533793082E+00  1.678354153961E+01  2.114603703320E+01  0.000000000000E+00  1.132925374551E+00 -6.370261384261E+00  1.376647392126E+01 -8.026064274029E+00  3.172763566123E+00  3.901583715711E+00      112
 O   4.549145122982E+00  1.450368005177E+01  1.975113476057E+01  0.000000000000E+00  1.514793761829E+00 -7.494190226642E+00  2.393318621537E+01 -1.020560027244E+01  5.512368715464E+00  4.829497294996E+00      113
 O   8.248327383525E+00  1.633477143495E+01  2.154097434231E+01  0.000000000000E+00 -7.977910899701E-01 -1.622525772952E+01  6.509684147212E+01 -2.139655653222E+01  2.492645186624E+01 -1.579924571560E+00      114
 O   1.129076168956E+01  1.397275777012E+01  3.564944340128E+01  0.000000000000E+00  1.007653555116E+01 -2.629630994495E+01 -1.653788621968E+01 -6.709118045758E+01 -5.237819004738E+00  1.247010558627E+01      115
 O   8.032295896491E+00  1.856689872694E+01  2.027038771733E+01  0.000000000000E+00 -5.698900651953E+00 -1.857986229918E+01 -3.842293925381E+00 -2.028454068060E+01 -1.522538303673E+00 -1.317318393436E+01      117
 O   6.307422910552E+00  2.069761954468E+01  2.014871846145E+01  0.000000000000E+00 -6.799036755090E+00 -3.146534295825E+00  2.545814083295E+01 -3.063088173934E+00  7.969502430489E+00 -2.231083566502E+01      118
 O   6.910690615289E+00  1.028230236795E+01  2.184913094323E+01  0.000000000000E+00 -7.312144793747E+00  6.653774405978E+00  8.609874091288E+00  1.413877778152E+01  2.723228499846E+00 -1.087961940609E+01      119
 Ca  2.334248686401E+01  1.931293227708E+01  2.111138172386E+01  0.000000000000E+00  5.391783475971E+00 -1.325863791365E+01 -3.966462592965E+00 -1.449330231772E+01 -4.385648565496E+00  4.461013504293E+00      120
 Ca  2.740650443020E+00  1.194310485286E+01  1.777137804377E+01  0.000000000000E+00  1.447719047269E+00  2.895051337797E+00  1.607810417894E+01  4.307845607483E+00  3.471377019553E+00  1.227116886371E+01      121
 Si  1.073825741896E+00  1.694748921084E+01  1.420006347196E+01  0.000000000000E+00  5.433802692569E+00 -5.440556532570E-01 -1.378112947387E+01 -4.558565999020E-01 -4.027245657679E-01  4.986442557840E+01      125
 Si  1.940695507476E+00  1.928778721874E+01  1.547377878521E+01  0.000000000000E+00  8.656655978274E-01  7.724126296525E+01  2.729832997857E+01  6.196740987752E+01  2.554103173477E+00  3.396178801121E+01      126
 Si  3.149262127793E+00  2.092681454807E+01  1.311999811434E+01  0.000000000000E+00 -5.615961774704E+00 -3.229231501455E+01  6.685367003656E+00 -2.024556155574E+01 -1.361073517364E-01  6.543176967999E+00      127
 O   6.999572846354E-01  1.838067706312E+01  1.498020885393E+01  0.000000000000E+00  1.783789746204E+01 -6.529030816404E+00  9.822837438179E+00 -5.321144858136E+00  5.780479930603E+00 -7.425809677876E-01      128
 O   2.583402401145E+00  1.692530269582E+01  1.347170279346E+01  0.000000000000E+00 -3.276821238738E-01  1.108343277675E+01  8.060711479968E+00  8.821863631220E+00  1.506807451924E+00 -7.328556638093E+00      129
 O   1.225834254129E+00  1.571917619684E+01  1.535963541612E+01  0.000000000000E+00  8.233471924742E-01  4.083375243140E+01 -3.756484692488E+00  3.989977223772E+01  7.512453964552E-01 -1.837355832857E+01      131
 O   3.443470865652E+00  1.878914017615E+01  1.558352195778E+01  0.000000000000E+00 -8.247857744189E-01 -3.489471956485E+01  2.230129688727E+01 -2.894132586438E+01  4.929437860871E+00 -4.480997940792E+00      132
 O   3.015048373583E+00  4.321530281456E+00  8.951810849555E+00  0.000000000000E+00  2.120508434530E+00  3.435674675569E+00  3.312206143619E+01  7.116809980085E+00  1.126635211392E+01 -9.349245853117E-01      133
 O   2.392442900910E+00  2.071591391290E+01  1.467412287974E+01  0.000000000000E+00  2.843181155558E+00  3.780104030111E+00 -4.292223545505E+01  2.677637649455E+00 -6.534233182477E+00 -2.739731547949E+00      134
 O   1.967354795025E+00  2.106814266723E+01  1.197388437174E+01  0.000000000000E+00  3.421398435439E+01 -1.991242579776E+01  1.598066097650E+01 -1.131704335921E+01  4.734467082524E+00  7.918741089338E+01      135
 O   8.315798604722E+00  1.458236073292E+01  1.353174803122E+01  0.000000000000E+00  1.431238717024E+00 -2.765928007288E-01 -1.061517404930E+01 -2.566651693277E-01 -6.523447624383E+00  2.509781712933E+00      136
 Si  8.644723844496E+00  1.469044621479E+01  2.531425368391E+01  0.000000000000E+00  7.744152254689E-01 -3.675511953504E+01  8.293889878300E+01 -6.333561326106E+01  2.832332664823E+01  1.316005626358E+00      139
 Si  8.464987659073E+00  1.675745352501E+01  2.309500376547E+01  0.000000000000E+00  1.798424803022E+01  4.458635422146E+01 -5.161694417704E+00  6.144859761039E+01 -1.891910475074E+00  3.560196573065E+01      140
 O   8.330215974818E+00  1.537605898494E+01  2.391623163108E+01  0.000000000000E+00 -8.658330005311E+00 -3.026264924193E+00  8.116659948109E+00 -4.707113375077E+00  2.827097989553E+00 -1.598169762647E+01      142
 O   7.404788499624E+00  1.355321113788E+01  2.593924378422E+01  0.000000000000E+00  9.601637425345E+00 -5.653898413237E+00 -3.395919538915E+01 -1.082089312859E+01 -9.694217054509E+00  1.757417099781E+01      143
 O   7.662478727384E+00  1.811663106260E+01  2.364036679676E+01  0.000000000000E+00 -3.192231027958E+00 -2.848067919068E+01 -7.702204857018E+00 -3.716439885330E+01 -2.496491758281E+00 -7.547488724952E+00      148
 O   1.248736657106E+01  1.586724975968E+01  2.035963458469E+00  0.000000000000E+00  1.237245982727E+01  2.158202918026E+01  1.538962278924E+01  2.125930493985E-01  2.154043372854E+00  1.572124187304E+01      150
 Ca  4.763341820735E+00  1.190439883426E+01  7.443967190113E+00  0.000000000000E+00 -2.708673973839E+00 -1.364519891099E+00 -1.101012291204E+00 -8.532510915516E-01 -7.350288230052E-01 -6.305289416115E+00      151
 Ca  1.296809937181E+01  2.217306699604E+01  1.957174883097E+00  0.000000000000E+00 -1.514461935154E+01 -1.301509454060E+01 -1.207739919410E+01 -2.045769414464E+00 -8.970346663309E+00 -2.589451621887E+01      152
 H   6.996603248046E+00  1.812580363788E+01  1.479738895951E+01  0.000000000000E+00  1.544032079132E+00  2.866754974376E+00  3.825549870364E+00  2.340336972360E+00  1.808822807982E+00  4.000058497635E+00      155
 H   1.046931211928E+01  1.421505465810E+01  3.605620357194E+01  0.000000000000E+00 -1.290200272493E+01  1.566637975070E+01  2.101396058299E+01  3.973746081972E+01  6.101632740304E+00 -1.751812075561E+01      156
 H   1.480372832231E+01  1.100349490663E+01  1.211867430917E+01  0.000000000000E+00 -6.646272253833E+00  1.902586877210E+01 -1.409983137735E+01  2.095409768029E+01 -1.722383717686E+01 -4.940121927456E+00      159
 H   1.597815543856E+01  2.892461908193E+00  1.064506539618E+01  0.000000000000E+00  2.904931272100E+01  4.784060063854E+00  4.857839350404E-01  1.799846890580E+01  7.291576833732E-01  5.268362488312E+00      160
 H   1.612949847112E+01  1.518142984427E+01  1.456336905572E+01  0.000000000000E+00 -1.539123899750E+01  3.797570444725E+01  4.020855105784E+01  3.642965153410E+01  4.453253641601E+01 -1.448656419636E+01      164
 H   1.945853874775E+01  6.081032384324E+00  6.674194047558E+00  0.000000000000E+00 -3.695213021165E+01  2.857236156045E+00 -1.246915540470E+01  3.135939317524E+00 -3.635368433480E+01 -1.154799460534E+01      168
 H   5.545448664707E+00  1.986298984278E+01  3.375982284304E+01  0.000000000000E+00  5.407729483000E+00  2.896787204987E+01 -7.238634210211E+01  4.923479477581E+01 -1.189030955581E+01  1.936969978227E+01      169
 Si  1.196167960642E+01  6.419949633278E-01  1.968980166479E+01  0.000000000000E+00 -1.000846806630E+00 -1.825465402481E+02  2.978577856422E+01 -4.782455933122E+01  1.809504971550E+01 -1.253470857431E+02      177
 Si  1.076800932053E+01  2.995733254513E+00  1.853282483804E+01  0.000000000000E+00  2.905539484651E+01  2.209478050185E+00  1.574560863576E+01  3.130078181651E+01  9.148570821174E+00  8.528569937357E+00      178
 Si  8.218359125071E+00  3.675154071674E+00  2.005066828899E+01  0.000000000000E+00 -3.243978586683E+01  9.305131095556E+00  8.832124998569E+00  5.076633342276E+01  3.620107521084E+00 -1.450669279577E+01      179
 O   1.168301949887E+01  1.588309387318E+00  1.842271403774E+01  0.000000000000E+00 -1.725182389876E+01  1.753656124908E+01 -3.536867746648E+01  3.570846576052E+01 -2.242953712703E+01 -1.595292778462E+00      180
 O   1.133829253383E+01  1.277155940185E+00  2.102782108372E+01  0.000000000000E+00  9.761548877825E+00  8.432363719875E+00  6.136031302827E-01  1.226075263620E+01  3.308574751098E-01  6.050156345249E+00      182
 O   1.046971653267E+01  3.918335184731E+00  1.727358713514E+01  0.000000000000E+00 -6.964535398806E+00 -2.597972082939E-01 -3.226527299918E+01 -8.552402692368E-01 -1.955634689586E+01 -2.614552555496E+00      184
 O   1.186369592003E+01  4.157267276390E+00  1.919384785849E+01  0.000000000000E+00 -5.105419388568E+00 -4.259523525039E+00 -4.646200762833E-01 -2.017784737884E+01 -2.871811501272E-01 -1.772378065185E+00      185
 O   9.432817993585E+00  2.973277958589E+00  1.947231765667E+01  0.000000000000E+00  3.708759954008E+01 -8.292397814365E+00 -3.855189667589E+01 -5.572625830045E+01 -1.867538477253E+01  1.159718426709E+01      187
 O   6.833040830492E+00  3.459654118070E+00  1.936371459284E+01  0.000000000000E+00 -7.788295707020E+00 -3.072547149230E+00 -1.801255202873E+01 -1.745171122552E+01 -6.356244453177E+00 -3.937329118948E+00      188
 Ca  1.177519956080E+01  3.561015880737E+00  2.115690337666E+01  0.000000000000E+00  5.030597644077E+00 -1.181581479552E+00  4.041548757184E+01 -1.332657275287E+00  2.249386042149E+01  1.382307728454E+00      190
 O   1.596434553148E+01  1.830599857366E+01  7.172710012923E+00  0.000000000000E+00 -1.688088147363E+00  5.336625797977E+00  1.656050836900E+00  2.091012360913E+00  3.685882704074E+00 -1.935697217084E+00      193
 O   4.592157350340E+00  1.222241238720E+01  1.247086229694E+01  0.000000000000E+00  2.477992008383E+00  2.490152577451E-01 -4.170688834438E+00  2.540770913954E-01 -1.539019884308E+00  6.615239005796E+00      194
 Si  1.843040879392E+01  1.397770256802E+00  1.971088182599E+01  0.000000000000E+00  1.505026932403E+01  1.534267306981E+01 -2.187150801656E+01  7.901170706007E+01 -2.045067477159E+01 -3.383273389860E-01      196
 Si  1.637395075638E+01  3.887409581508E+00  1.931346962780E+01  0.000000000000E+00 -4.597475741793E+00 -1.578136512440E+00 -1.498226807147E+00 -5.081279824570E+00 -1.270196004907E+00 -9.315058645767E-01      197
 O   1.990418078894E+01  1.719957561935E+00  2.028513175512E+01  0.000000000000E+00 -4.168534469710E+00  3.487366121336E+00  1.888027419682E+01 -4.762518117708E+00  1.852570619185E+01  1.758558072108E+00      202
 O   1.767262936329E+01  2.922584807071E+00  1.973018467340E+01  0.000000000000E+00 -1.113302569622E+01  1.136250917922E+00  2.334954681958E+00 -1.405765041544E+01  2.091454761189E+00 -2.121599226993E+00      205
 O   1.577399382732E+01  5.104218096826E+00  2.033947838359E+01  0.000000000000E+00  1.541675606233E+01 -7.069759425992E+00 -2.564461816654E+01 -2.817184068047E+01 -1.988831970191E+01  4.988621534223E+00      206
 Ca  1.409288081894E+01  5.341745502456E+00  1.883415754572E+01  0.000000000000E+00 -8.663839953535E+00  2.906894818715E-01 -3.294507746040E+00  1.024925559620E+00 -2.465154329802E+00 -3.283929574115E+00      209
 O   2.255446886407E+01  1.885126541064E+01  1.526928606539E+01  0.000000000000E+00 -3.782509745452E+01 -1.530769647525E+00 -7.008906931740E+00 -1.239904013822E+00 -1.035295117834E+01 -3.161461950605E+01      210
 O   1.402445075055E+01  1.693790169672E+01  4.461947201097E+00  0.000000000000E+00 -9.434473271534E+00 -2.656170443591E+01 -1.036055322856E+01 -6.931559621031E+00 -3.347662129611E+01 -1.139439851698E+01      212
 Si  1.424750594964E+01  3.607843056083E+00  1.540039847476E+01  0.000000000000E+00  2.077594896292E+01  7.144762413325E+00 -1.882975699305E+01  3.670189642081E+01 -1.742013852619E+01  5.058927154638E+00      213
 Si  1.157911810196E+01  4.713765072129E+00  1.636599416367E+01  0.000000000000E+00 -2.161995391540E+01  3.025222151699E+00 -2.539617050858E+01  1.050344413031E+01 -1.796806565586E+01 -8.801307900145E+00      214
 Si  9.949975001924E+00  6.261950502724E+00  1.381513143898E+01  0.000000000000E+00  1.241263120170E+01  4.664969892893E-01  9.234696584237E+00  1.029186867593E+00  6.651040604960E+00  7.811806781282E+00      215
 O   1.269785766091E+01  3.523081194524E+00  1.596116248765E+01  0.000000000000E+00 -9.969403455267E+00  4.896427965717E+00 -7.795199659356E+00  1.580799915077E+01 -6.201449035397E+00 -3.255321515549E+00      216
 O   1.519714902481E+01  3.992342313006E+00  1.670366110720E+01  0.000000000000E+00 -1.244089448977E+01 -4.335030230155E+00 -2.118149833000E+01 -1.997286270885E+01 -1.927112772606E+01 -3.118737906509E+00      217
 O   1.475199696465E+01  4.718027600042E+00  1.420400391671E+01  0.000000000000E+00 -1.802538047692E+01 -7.315224907063E-02  1.605374999791E+01 -2.202307659892E-01  1.667310658524E+01 -5.764930862929E+00      218
 O   1.463060298690E+01  2.256878818644E+00  1.463864398508E+01  0.000000000000E+00 -7.331096301741E-01  3.448911699426E+00  8.102976023876E+00 -1.195895394413E+01  8.098525064109E+00  1.503939603615E-01      219
 O   1.224259029924E+01  6.030951218158E+00  1.712246777402E+01  0.000000000000E+00  4.546797320089E+00 -1.243255042879E+00 -3.421778611588E+00 -3.529724190520E+00 -2.446576871351E+00  2.239845667139E+00      220
 O   1.050594245360E+01  5.354131255828E+00  1.511911250624E+01  0.000000000000E+00  1.397161143123E+01 -5.532595744864E+00  1.372352653580E+01 -1.562306441910E+01  9.536180115472E+00  7.120336113452E+00      222
 O   1.126891091538E+01  6.942304488912E+00  1.311838715633E+01  0.000000000000E+00 -1.509220562147E+01 -3.285810783810E+00  4.677576464385E+00 -6.208966785209E+00  4.018115325375E+00 -9.297676378868E+00      223
 O   2.144699598731E+01  2.124985117043E+01  1.341245694029E+01  0.000000000000E+00  8.376867595680E+00 -1.467567986327E+01 -2.064005063151E+01 -9.262978957213E+00 -3.300417552448E+01  8.299865854777E+00      224
 Ca  1.580505075639E+01  7.787335860471E+00  5.922917150237E+00  0.000000000000E+00 -6.848800280387E+00 -5.118003596570E+00  2.950492475977E+00 -3.892667764719E+00  7.873262812276E+00 -3.374485083707E+00      225
 Ca  1.696163626373E+01  4.581355845168E+00  1.538680406006E+01  0.000000000000E+00 -1.524945407089E+00  2.742422410925E+00  5.675415687592E+00  9.210617492487E+00  6.256291830496E+00 -4.118893628953E-01      226
 Si  2.147131086417E+01  2.419827261771E+00  2.028854127791E+01  0.000000000000E+00 -5.809744544753E+01 -7.450384146937E+00  1.117020861698E+02 -3.996265859736E+01  1.182140294600E+02 -4.105417043569E+00      228
 Si  2.284170401727E+01  4.630026842128E+00  2.154544005503E+01  0.000000000000E+00 -5.400470134070E+01  1.280310604522E+01  7.464273676588E+00  5.957817594181E+01  7.913355660828E+00 -1.094678473285E+01      229
 O   2.226981184077E+01  1.181106897278E+00  2.104472360538E+01  0.000000000000E+00 -2.232073504396E+01  3.079571385779E+01 -3.561823092929E+01  4.212555822250E+01 -3.769169487660E+01  1.739186949567E+00      230
 O   2.131113387881E+01  3.728815148616E+00  2.140180980556E+01  0.000000000000E+00  4.884864339635E+01 -1.299013543606E+00 -2.903455647489E+01 -7.373112780971E+00 -2.891154186351E+01  8.549074408522E+00      236
 O   2.318180032491E+01  4.496182761883E+00  2.324474561520E+01  0.000000000000E+00 -6.658426679912E+00  3.624909545715E+00 -2.860830016013E+01  1.835740164888E+01 -2.853083070583E+01 -1.280885305525E+00      237
 H   1.351729687428E+01  1.644847769974E+01  3.679995566150E+00  0.000000000000E+00  9.828034615883E+00  1.709593591364E+01  6.923969635219E+00  3.778445007564E+00  2.423478892313E+01  1.195921120289E+01      243
 H   1.951186567917E+01  1.905121592066E+01  7.547559378744E+00  0.000000000000E+00 -5.037566937000E+00  1.611854967519E+00 -1.611031608086E+00  6.385718962998E-01 -4.164820806897E+00 -4.918636536843E+00      247
 H   1.332750566686E+01  7.762499806812E+00  8.163934579457E+00  0.000000000000E+00  3.265969464921E+01  5.129765087850E+00 -4.508743312129E+00  5.395048969719E+00 -7.360458545814E+00  1.902237971171E+01      248
 H   5.790476113125E+00  1.053407718053E+01  1.073124305374E+01  0.000000000000E+00  2.584426854442E+00 -1.356476443587E+01  4.904083594246E-01 -1.381865555316E+01  2.646196602486E-01  4.701608541378E+00      249