     8448
Lattice="     49.70      0.00      0.00      0.00     49.70      0.00      0.00      0.00     49.70" pbc="T T T" config_type=md Properties=species:S:1:pos:R:3:charge:R:1:forces:R:3:id:I:1
 Si  1.066291702885E+01  1.743416575693E+01  1.580770864044E+01  0.000000000000E+00  2.025209842912E+01  2.909805545316E+00 -1.392500434688E+01  2.638345814878E+00 -9.392959432295E+00  3.311274391271E+01        1
 Si  1.253907461450E+01  2.003622135987E+01  1.686365686379E+01  0.000000000000E+00  1.426510231420E+01 -2.529714441644E+01 -8.113648483772E+00 -2.129155769496E+01 -6.032952671863E+00  2.279424570598E+01        2
 Si  1.090545518248E+01  2.268624692551E+01  1.787085100110E+01  0.000000000000E+00 -3.158545728294E+01 -6.775465862040E+01 -2.248629071475E+01 -5.337301550192E+01 -1.372196744267E+01 -6.570615083789E+01        3
 O   1.142517958201E+01  1.872630722696E+01  1.658556670209E+01  0.000000000000E+00  1.653573819221E+01  1.911345025528E+01  1.522517231146E+01  1.692845259206E+01  1.048805452054E+01  2.710270866109E+01        4
 O   9.568144383711E+00  1.817540202463E+01  1.494219557544E+01  0.000000000000E+00 -6.878595695888E+00 -5.559172570551E-01  7.810687474099E+00 -4.570256199795E-01  5.001526389539E+00 -1.306640421841E+01        5
 O   1.170293891046E+01  1.672267283728E+01  1.469148028396E+01  0.000000000000E+00 -2.422525296548E+01  2.750650796272E+01  1.649080398141E+01  2.416547422456E+01  1.313624412576E+01 -3.461617486356E+01        6
 O   9.970120543904E+00  1.655987204859E+01  1.697471505147E+01  0.000000000000E+00  1.073683118669E+01 -2.018760698472E+01  4.172734938823E+01 -2.069332873654E+01  2.450861190404E+01  1.783334011620E+01        7
 O   1.346243600859E+01  2.020572979438E+01  1.540994715431E+01  0.000000000000E+00 -3.790347923556E+00  1.014023845231E+01  1.420160865650E+01  7.733476606509E+00  1.240680748887E+01 -5.688921820774E+00        8
 O   1.391089298531E+01  1.988430744268E+01  1.798322638987E+01  0.000000000000E+00 -2.483616552531E+01  6.776677206795E+00 -2.822847202635E+01  6.128778723230E+00 -2.183608463711E+01 -3.550095249269E+01        9
 O   1.155397083733E+01  2.119814105230E+01  1.741997609287E+01  0.000000000000E+00  3.601166495837E+00 -6.079706245057E+00  1.402628009754E+01 -4.996114384712E+00  9.303068519684E+00  6.607082223620E+00       11
 O   2.010303907906E+01  1.799658584394E+01  2.163053125191E+01  0.000000000000E+00 -1.078696711997E+01  9.455554997723E+00  4.267537863990E+00  1.136485996044E+01  3.966175377387E+00 -9.656678226952E+00       13
 Ca  3.344698047577E+00  1.534808782043E+01  1.701100089602E+01  0.000000000000E+00 -8.384861779274E-01  1.055472139316E+01  7.599415333314E+00  1.169828953137E+01  1.461786114559E+00 -3.162926571755E+00       14
 Ca  2.226091189340E+01  1.323523652676E+01  1.795529728210E+01  0.000000000000E+00 -1.435412208931E+01 -2.017516236519E+01 -2.237398345506E+00 -2.737019752153E+01 -2.773918284795E+00 -8.534250613625E+00       15
 O   6.726391100139E+00  5.133718258051E+00  1.665276755834E+01  0.000000000000E+00 -2.604794113192E+01 -7.428427421834E+00  1.074313704680E+01 -2.409635062964E+01  4.339371288648E+00 -1.988031754068E+01       16
 O   9.750960492339E+00  1.628758905756E+01  2.007620728273E+01  0.000000000000E+00 -9.049997686141E-01  8.536631323740E+00 -5.205195606401E+00  1.052231728993E+01 -2.528149664831E+00 -1.511673064408E+00       18
 Si  2.046751356284E+01  2.007052939283E+01  1.790582203744E+01  0.000000000000E+00  5.453438112419E+01 -4.694718874706E+01  1.578651358041E+01 -4.188369875104E+01  1.804500682187E+01  5.347664218774E+01       19
 Si  1.819401639261E+01  2.173945471262E+01  1.843569281254E+01  0.000000000000E+00 -8.911662277033E+00  1.685037428857E+00  4.356036570805E+01  1.428960975641E+00  4.298932596779E+01 -1.064826337984E+01       20
 O   1.913361864696E+01  2.039975722042E+01  1.859438591955E+01  0.000000000000E+00 -9.002751578358E+01  9.002158364863E+00  2.979672041018E+01  8.205470532642E+00  3.066081814829E+01 -9.598495188125E+01       22
 O   2.159010117385E+01  2.116072054309E+01  1.812975179050E+01  0.000000000000E+00  2.137754472277E+01  3.137470105319E+01 -1.530183940586E+01  2.688072655357E+01 -1.822243706015E+01  2.095239138221E+01       23
 O   2.031991203181E+01  1.944352801688E+01  1.645787749617E+01  0.000000000000E+00  5.721722289914E+00 -4.336357770843E+00 -1.722755441486E+01 -3.670488447886E+00 -2.127020269257E+01  5.474948290847E+00       24
 O   2.098652328892E+01  1.898925486740E+01  1.917055612818E+01  0.000000000000E+00  6.132017497090E+00 -2.550773911211E+01  1.271033109116E+01 -2.575127606461E+01  1.391434122573E+01  5.548438943436E+00       25
 O   1.849295415461E+01  2.259215925953E+01  1.985232786556E+01  0.000000000000E+00  1.325339235185E+01  8.982032529227E+00  2.952554634789E+01  7.892749542923E+00  2.750380603720E+01  1.619118006992E+01       26
 O   2.234293909526E+01  1.734355734066E+01  2.094408673299E+01  0.000000000000E+00 -1.191914333222E+01 -1.747227256847E-01 -2.316524381276E+01 -2.109952329322E-01 -2.471244691801E+01 -9.252155455129E+00       27
 O   1.913156674514E+01  2.239122982912E+01  1.731975700413E+01  0.000000000000E+00 -1.167153515366E+00  3.392651720883E+01 -3.571782172352E+01  2.624237429285E+01 -3.945424235061E+01 -1.366014762752E+00       29
 Ca  4.959557964199E+00  1.065144521390E+01  1.437612909069E+01  0.000000000000E+00 -1.038241596051E+00  7.168830483939E+00 -5.641123642932E+00  9.675685355061E+00 -1.935041339579E+00 -1.888476058199E+00       32
 Si  1.267180083878E+01  1.854385145990E+01  1.190031686525E+01  0.000000000000E+00  7.062866465674E+01  9.001880680848E+01  2.414635061456E+01  5.776859932085E+01  2.571173099304E+01  1.033576429167E+02       37
 Si  1.282881595533E+01  2.107799204813E+01  1.407087835262E+01  0.000000000000E+00 -2.425558825513E+01 -3.656682327360E+01 -3.071685781032E-01 -2.441064219256E+01 -2.800542408935E-01 -3.985239932854E+01       38
 O   1.225057703321E+01  1.979372775787E+01  1.302270298081E+01  0.000000000000E+00  5.579340551519E+00  4.100792300394E+01  1.689045108162E+01  2.697996090847E+01  1.588900341243E+01  9.014754786308E+00       40
 O   1.376133420547E+01  1.771245634090E+01  1.275959916980E+01  0.000000000000E+00  5.153948254429E+00 -9.198158530638E+00 -4.393681022874E+00 -6.626117444833E+00 -4.738621656007E+00  6.633737839425E+00       41
 O   1.331864944919E+01  1.953309335299E+01  1.064414032318E+01  0.000000000000E+00 -1.029596065856E+01 -2.332604827798E+01 -7.942734543395E-01 -1.271102976724E+01 -9.938472609294E-01 -1.510002658074E+01       42
 O   1.137568623875E+01  1.792837089290E+01  1.154168168554E+01  0.000000000000E+00 -5.719553868885E+01 -4.276640533827E+01 -2.695051236210E+01 -2.753157217673E+01 -2.656290313300E+01 -9.014162394350E+01       43
 O   1.358441036090E+01  2.234753343872E+01  1.353563540146E+01  0.000000000000E+00  2.799816832975E+00  4.310329665410E+00 -6.339152643779E+00  2.610715449697E+00 -6.361995451223E+00  4.605941563520E+00       44
 O   1.155975491374E+01  2.175559945499E+01  1.492502917354E+01  0.000000000000E+00  1.766545277448E+01 -3.761687819436E+01 -1.696406527413E+01 -2.580636794817E+01 -1.313903206683E+01  3.324659714852E+01       46
 O   8.877011328517E+00  2.124932104904E+01  1.549575961027E+01  0.000000000000E+00  3.934173702698E+00  1.132736777199E+00  1.594593633599E+01  8.260318887686E-01  9.134902777182E+00  9.417417301559E+00       47
 O   1.647730131212E+01  1.526954991477E+01  1.007605840664E+01  0.000000000000E+00  3.833920183260E+00 -6.992624792508E+00  7.650015372465E+00 -4.614287665212E+00  1.251001167791E+01  3.552901928453E+00       48
 Ca  7.682620439800E+00  2.156995496246E+01  1.337321346567E+01  0.000000000000E+00  5.950756215842E+00 -2.265734337233E+01  2.076470477455E+01 -1.404738628386E+01  1.192887152642E+01  1.670752116079E+01       49
 Si  2.068904467936E+01  2.068333637514E+01  2.329774126819E+01  0.000000000000E+00 -2.505637503421E+01  4.246398607212E+01  1.426935567962E+01  4.783149791602E+01  1.267158621958E+01 -2.504946174201E+01       51
 Si  1.948580091375E+01  2.286694307201E+01  2.114330277337E+01  0.000000000000E+00 -3.744699624765E+01  5.238734179042E+00  3.999045692680E+01  4.843854403620E+00  3.685545680719E+01 -4.394473366546E+01       52
 O   1.976951515306E+01  2.187602076703E+01  2.246525453124E+01  0.000000000000E+00 -4.311655456937E+00 -4.080834101808E+01 -2.400643976136E+01 -4.190751954991E+01 -2.112576440981E+01 -4.771076254828E+00       54
 O   1.981003054832E+01  1.942970689302E+01  2.389435538316E+01  0.000000000000E+00 -3.782194700905E+00  1.762777388556E+01  1.716898633408E+01  2.167836582171E+01  1.423424646983E+01 -3.709582086292E+00       55
 O   2.195223429883E+01  2.015554899901E+01  2.247005088945E+01  0.000000000000E+00  4.841017700790E+00 -6.802526969996E+00 -1.037860101229E+01 -7.583674709142E+00 -1.013942879955E+01  4.444803574212E+00       56
 O   2.123036428155E+01  2.179927730743E+01  2.440357862384E+01  0.000000000000E+00  1.743131196386E+01 -2.512306640597E+01  1.253689687623E+01 -2.812445191021E+01  1.090671543486E+01  1.789842125614E+01       57
 O   1.662403143773E+01  2.185234826632E+01  1.830425642579E+01  0.000000000000E+00 -9.186251786859E-01 -1.202237715592E+01 -1.898923298188E+01 -1.007034446036E+01 -1.724613110338E+01 -1.207536054419E+00       58
 O   1.668837266439E+01  1.709462123728E+01  1.341943874149E+01  0.000000000000E+00 -2.285752614676E+01 -4.377585029614E+01 -3.692951280710E+01 -3.436445495058E+01 -4.592542832165E+01 -2.341395172305E+01       59
 H   3.165064714644E+00  8.622124634611E+00  1.420743112603E+01  0.000000000000E+00  1.062398364350E+00 -9.450392322650E+00  8.058885979545E+00 -1.557224045440E+01  1.922104026464E+00  1.958328003763E+00       70
 H   1.389275440044E+01  2.042773279218E+01  1.879069051089E+01  0.000000000000E+00 -1.064523672448E+00 -4.092180950605E+00 -8.841109343007E-01 -3.764240825923E+00 -6.536607085230E-01 -1.565262330631E+00       73
 H   1.862704690647E+01  9.737973465126E+00  1.753884444921E+01  0.000000000000E+00 -1.053003370711E+01 -1.451314903001E+00 -4.902257694474E+00 -2.613930549484E+00 -5.206419629697E+00 -5.504962184375E+00       83
 Si  2.186054397593E+00  2.062433782789E+01  2.132942448347E+01  0.000000000000E+00 -1.361541053570E+00  3.544411459214E+00  8.892037206187E+00  3.665584669362E+00  9.879730306861E-01 -4.400190755866E+01       89
 Si  3.050508010253E+00  2.042969201008E+01  1.849597534890E+01  0.000000000000E+00  1.076166695941E-01  2.040713852386E+01 -3.024071790493E+01  1.847555660127E+01 -5.121301319586E+00  2.493747610684E+00       90
 O   2.343536277672E+00  1.993892647165E+01  1.981781135869E+01  0.000000000000E+00  1.381892134110E+00 -1.346828400702E+01  4.263775454236E+01 -1.338647354740E+01  4.127523029281E+00 -1.890137360372E+01       92
 O   1.062985645155E+00  1.984098041087E+01  2.224037481182E+01  0.000000000000E+00  4.603978170035E+01  8.462863915055E-01  1.801827622248E+00  9.486288558053E-01 -3.964608435836E+00  1.095550503315E+01       95
 O   2.354788879728E+00  1.979701430601E+01  1.722322572676E+01  0.000000000000E+00 -2.269079320940E+00 -3.327767292536E+01 -2.575268888824E+01 -2.895127838954E+01 -3.327392444582E+00 -1.722166952584E+01       96
 O   4.536486801081E+00  1.998581855263E+01  1.836802914630E+01  0.000000000000E+00  1.015201678312E+01 -5.368169161565E+00  1.141582235956E+01 -4.933632683705E+00  2.819449329331E+00  4.472543936916E+01       97
 O   1.228040952708E+01  1.403108405351E+01  2.155733076058E+01  0.000000000000E+00 -2.661300958762E+01 -1.251172881474E+01  1.163194281040E+00 -1.922299627151E+01  6.626285178518E-01 -3.040691547114E+01       98
 O   3.648706001092E+00  1.212041922184E+01  2.042413456792E+01  0.000000000000E+00 -2.882174136534E+00 -3.748604092966E+00 -5.848426335257E+00 -6.316777747970E+00 -1.039848519733E+00 -9.625018828005E+00      101
 Ca  2.162595237802E+01  2.345440881240E+01  1.826261567047E+01  0.000000000000E+00  7.792826295394E+00  1.433675793465E+00  7.404076779000E+00  1.116321891613E+00  8.767649427387E+00  8.451703330393E+00      102
 O   1.586055866310E+01  4.332353841298E+00  1.180555372354E+01  0.000000000000E+00 -5.982521544487E-01 -7.931337185622E-01 -3.680832924125E+01 -2.161269154699E+00 -4.945135813980E+01 -1.634141693521E-01      105
 Si  5.405131749440E+00  1.558505698257E+01  2.017795592753E+01  0.000000000000E+00  6.273163404701E+00 -7.407589414073E+00  4.172353257492E+00 -9.590597768979E+00  1.117661231045E+00  1.808792341340E+01      107
 Si  8.471209386664E+00  1.672289855150E+01  2.093139982083E+01  0.000000000000E+00 -3.781448792920E+00  5.006780535508E+00  1.273581367868E+00  6.266791901006E+00  5.154349221990E-01 -7.464906326273E+00      108
 Si  7.407973157033E+00  1.952894375677E+01  2.047472655632E+01  0.000000000000E+00  1.039468888947E+01  2.170884029462E+01 -1.178326272575E+01  2.276019504296E+01 -4.263309389482E+00  2.740254188136E+01      109
 O   7.010977371512E+00  1.618178143363E+01  2.025712980184E+01  0.000000000000E+00  1.008503072411E+00  6.734152087773E+00 -2.696263278597E+00  8.430134438956E+00 -9.331746905312E-01  2.327689197688E+00      110
 O   4.503571180121E+00  1.588432265249E+01  1.886294207445E+01  0.000000000000E+00  5.125044727286E+00  1.589169806409E+01  9.983295778212E+00  1.887170051916E+01  2.383535027141E+00  1.807629119220E+01      111
 O   4.799551981873E+00  1.621254540484E+01  2.157649894978E+01  0.000000000000E+00 -2.563482175713E+00 -2.345422135299E+01  2.037009792325E+01 -3.121409807987E+01  4.531195913017E+00 -8.659260557067E+00      112
 O   5.661560761009E+00  1.392764677924E+01  2.029433073531E+01  0.000000000000E+00 -5.800300790644E+00  9.641421970408E+00  1.174254510481E+01  1.404876281884E+01  3.275847499817E+00 -1.426895233233E+01      113
 O   8.859063335431E+00  1.605225258713E+01  2.243117140462E+01  0.000000000000E+00 -2.933190607926E+00  1.644093656106E+01  4.703268211745E+01  2.297431242451E+01  1.857528981424E+01 -5.314818817957E+00      114
 O   1.052287016700E+01  1.336874528384E+01  3.716296171715E+01  0.000000000000E+00  3.658779626312E+01 -6.039796571611E+00  1.082161057293E+02 -1.678966305398E+01  3.064190737096E+01  4.648284365163E+01      115
 O   8.236546193680E+00  1.839402918290E+01  2.131473260878E+01  0.000000000000E+00  3.482319962498E-01 -1.741205371259E+01 -6.429036180394E+00 -2.017683376293E+01 -2.484340500656E+00  7.776790599865E-01      117
 O   5.861994023004E+00  1.963306260648E+01  2.081706984874E+01  0.000000000000E+00 -2.324039492378E+00 -2.973775925355E+00  1.267110923237E+01 -3.153114844762E+00  3.568127845308E+00 -7.783701701968E+00      118
 O   6.650647222714E+00  9.589513864214E+00  2.237895252021E+01  0.000000000000E+00 -2.402451456348E+00  1.238317644649E+01  1.669934166807E+01  2.889849492575E+01  4.962762675581E+00 -3.464075115889E+00      119
 Ca  2.362847677410E+01  1.942782740219E+01  2.112049154784E+01  0.000000000000E+00  8.214500309745E+00 -1.501985405613E+01 -5.314083676431E+00 -1.632847019253E+01 -5.945112709133E+00  6.754133824991E+00      120
 Ca  3.234181524274E+00  1.190685796285E+01  1.807763095680E+01  0.000000000000E+00 -2.335251840507E+00  7.354902484033E-01  1.486933648088E+01  1.116660778557E+00  2.918313023748E+00 -1.064762981984E+00      121
 Si  9.317667974431E-01  1.697228723257E+01  1.464302647126E+01  0.000000000000E+00 -2.283631017344E+02  7.471319722965E+00 -1.534638978515E+01  6.445962820417E+00 -7.771178304945E+01  5.543878650693E+00      125
 Si  2.885872983711E+00  1.882468069500E+01  1.594381662236E+01  0.000000000000E+00 -9.414254908579E+00 -2.229432232882E+01  2.537082284184E+01 -1.888247629214E+01  3.731057441011E+00 -5.313181716896E+01      126
 Si  3.686320517132E+00  2.071317037810E+01  1.321578440872E+01  0.000000000000E+00 -1.147955977646E+01  1.233201709347E+01  1.293966410716E+01  7.868292311461E+00  3.410375473954E+00 -6.728386215083E+01      127
 O   1.283295247423E+00  1.815503256923E+01  1.564651131240E+01  0.000000000000E+00  3.318758197506E+01  2.734594749638E+01  1.878636487849E+01  2.356749706831E+01  2.781313348562E+01  5.146994221904E+01      128
 O   1.897322141648E+00  1.693778810461E+01  1.326784478902E+01  0.000000000000E+00  2.707940453987E+01 -6.810092681845E+00  2.660594806829E+01 -5.334536726018E+00 -1.054168330567E+00 -2.940587090861E+00      129
 O   7.607463375521E-01  1.555300173655E+01  1.554286709965E+01  0.000000000000E+00  1.065199980672E+01 -1.994661381248E+01 -3.176547412362E+01 -1.993361621294E+01  7.192606728737E+00  2.541415485066E+01      131
 O   3.944617099503E+00  1.754669602660E+01  1.609236372979E+01  0.000000000000E+00 -1.850854888992E+00  1.233109976287E+01  2.801594288238E+00  1.130905455202E+01  5.649723849089E-01 -7.038166616604E+00      132
 O   2.869494158203E+00  4.141445747238E+00  8.080261636249E+00  0.000000000000E+00  1.985351933824E+00  1.815929850134E+01  1.403267054075E+01  3.609871428529E+01  3.967438933111E+00 -1.203373706341E+00      133
 O   3.485649855056E+00  1.988608811838E+01  1.497439260621E+01  0.000000000000E+00  6.399534160266E+00  4.430896551248E+01 -5.388986906463E+01  3.336502592210E+01 -1.234323107192E+01  2.758608503604E+01      134
 O   2.144508337408E+00  2.100549272191E+01  1.245813039890E+01  0.000000000000E+00  7.240719931957E+00  1.956247133516E+01 -5.419812157483E+00  1.160229003169E+01 -1.043634459929E+01 -6.535172324623E+00      135
 O   8.590201745328E+00  1.586178358539E+01  1.219826951185E+01  0.000000000000E+00 -7.390130631389E+00 -2.721774032443E+00 -1.972989615227E+00 -2.093139968741E+00 -1.389408458288E+00 -1.364585561760E+01      136
 Si  9.430973826677E+00  1.398627266300E+01  2.577856632802E+01  0.000000000000E+00 -5.509312064825E+00 -1.753367494416E+01  5.101856930164E+01 -3.231690196615E+01  1.866491664570E+01 -8.170390687144E+00      139
 Si  8.783425268886E+00  1.655426376477E+01  2.414838052389E+01  0.000000000000E+00  1.238298963077E+01  2.220812377932E+01 -3.498268392653E+01  3.239589699457E+01 -1.272415720258E+01  2.333842097689E+01      140
 O   8.885495716540E+00  1.511048858620E+01  2.479935971656E+01  0.000000000000E+00 -1.043132856780E+01 -1.735140724817E+01  4.483652320276E+00 -2.847715925804E+01  1.606471858209E+00 -1.773929967343E+01      142
 O   8.267128394872E+00  1.251690957787E+01  2.584891331110E+01  0.000000000000E+00  9.098777893643E+00  5.706401797786E+00 -1.716296751555E+01  1.178440129104E+01 -5.489145883251E+00  1.377607492276E+01      143
 O   7.306111515011E+00  1.719170607138E+01  2.457575627962E+01  0.000000000000E+00  1.015998816523E+01 -4.743235670700E+01 -2.193256569555E+01 -6.780514006924E+01 -6.520319007022E+00  2.390704410498E+01      148
 O   1.302908260378E+01  1.582025722733E+01  1.316320390758E+00  0.000000000000E+00 -7.423673306596E+00 -2.176287547509E+00  8.051029605604E+01 -5.043398044321E+01  1.980503315827E+01 -9.014020775944E+00      150
 Ca  5.384681664977E+00  1.129755507324E+01  8.126702709121E+00  0.000000000000E+00  6.634897050459E-01  6.058778491016E+00 -3.481025648096E+00  4.358278517582E+00 -2.306496946366E+00  1.392062140282E+00      151
 Ca  1.254913441132E+01  2.192662174857E+01  1.132968930429E+00  0.000000000000E+00  1.706812253567E+00 -7.178503768574E+00 -6.436325087470E+01 -6.555090599456E+00  3.232378704787E+00  2.982247655746E+00      152
 H   7.543259637646E+00  1.845989497755E+01  1.539619555589E+01  0.000000000000E+00 -9.247139419927E+00  1.968793256523E+01  4.584361795154E+01  1.642042168897E+01  2.246076387392E+01 -2.262963635544E+01      155
 H   1.002097376414E+01  1.366347019650E+01  3.642228679338E+01  0.000000000000E+00 -1.172015591167E+01  5.775883407559E+00 -6.904602351585E+01  1.539659244173E+01 -1.899684097529E+01 -1.598028343020E+01      156
 H   1.696839140775E+01  1.756409043455E+01  1.414354454545E+01  0.000000000000E+00  2.061318772584E+01  3.697890986345E+01  4.422194524524E+01  2.977739501200E+01  5.305425901701E+01  2.133684240662E+01      159
 H   1.648634202601E+01  4.461747074900E+00  1.249048043908E+01  0.000000000000E+00  2.029108567794E+01  2.635035015916E-01  2.422018077310E+01  7.376673928414E-01  3.196852083511E+01  5.491436003646E+00      160
 H   1.580080841276E+01  1.644715692793E+01  1.945076832372E+01  0.000000000000E+00 -5.272343836644E+01  2.922953018353E+01 -6.927766910860E+01  3.456748314023E+01 -5.627763174438E+01 -5.488014549260E+01      164
 H   1.903994296693E+01  5.729559996651E+00  4.631081956868E+00  0.000000000000E+00 -2.065248065147E+01 -1.978196764973E+01 -1.524453164820E+01 -1.598934534372E+01 -6.267542139019E+01 -6.214809948631E+00      168
 H   5.783721477674E+00  2.218206779106E+01  3.107341236850E+01  0.000000000000E+00 -1.289336608312E+01  1.858094252724E+01  5.594760205986E+01  2.602883080076E+01  1.041357620530E+01 -4.944939371900E+01      169
 Si  1.203072874350E+01  9.430948963894E-01  1.967042188148E+01  0.000000000000E+00  5.515319650467E+01 -1.891396138406E+02  4.530745063867E+01 -6.382055094199E+01  2.771072486283E+01 -5.926270747410E+00      177
 Si  1.071808561071E+01  3.573324976789E+00  1.878302617956E+01  0.000000000000E+00  5.592889636698E+00 -4.371483257925E+00  1.342386496611E+01 -2.302168935683E+01  7.660008166835E+00  1.756357781638E+00      178
 Si  7.924570009834E+00  4.302622355140E+00  2.023462331675E+01  0.000000000000E+00  2.381345470579E+01 -4.155830885440E+00  1.941156826711E+01 -1.954428383298E+01  7.602233524458E+00  1.292944632240E+01      179
 O   1.112446507581E+01  1.828443888418E+00  1.880553293689E+01  0.000000000000E+00 -2.186218756908E+01  1.904010159718E+01 -2.391575498544E+01  5.768334481140E+01 -1.414743107733E+01  3.202004214015E+00      180
 O   1.206312980104E+01  1.198739644983E+00  2.139355314518E+01  0.000000000000E+00 -1.143367969179E+01  2.525891282634E+00 -3.863386145865E+01  1.135006668172E+01 -2.178437973011E+01  1.493233807590E+00      182
 O   1.141667510839E+01  4.067242630077E+00  1.738350523016E+01  0.000000000000E+00 -8.778936146069E+00  2.601278265346E+00  7.281916479068E+00  1.164531758177E+01  4.782422964025E+00 -3.188325287274E+00      184
 O   1.160084494559E+01  4.210596861436E+00  1.994494848735E+01  0.000000000000E+00  5.952584725159E+00  6.380387521150E-01  1.426318292578E+01  2.466356178821E+00  8.296084277053E+00  2.149939685720E+00      185
 O   9.127381396149E+00  3.629781869689E+00  1.916324365826E+01  0.000000000000E+00 -2.279436016520E+00  6.871451292065E-01 -1.188208333243E+00  3.953012671154E+00 -5.659391921845E-01 -6.706443911753E-01      187
 O   6.626369119160E+00  4.595595897737E+00  1.949475053763E+01  0.000000000000E+00 -8.441979710702E+00  4.515659063281E+00 -6.153814434287E+00  1.910114231847E+01 -2.091714169601E+00 -5.854389114068E+00      188
 Ca  1.120745018798E+01  3.743245563016E+00  2.217655384997E+01  0.000000000000E+00  1.609331668258E+01  4.246245000589E+00 -1.991034643462E+00  2.954532120369E+01 -1.006216824314E+00  5.688330488398E+00      190
 O   1.564681112667E+01  2.012241660125E+01  8.713340809446E+00  0.000000000000E+00 -2.881638632207E+01 -5.099202033006E+00 -9.169575992973E+00 -2.208039225619E+00 -1.646608652311E+01 -3.705901003220E+01      193
 O   5.522091180860E+00  1.266671043179E+01  1.325585591839E+01  0.000000000000E+00 -2.473275175613E+00 -4.804057050484E+00 -2.303573726231E+01 -5.027500109665E+00 -9.596169599608E+00 -5.673260263470E+00      194
 Si  1.782801819684E+01  1.524035213423E+00  1.983386618643E+01  0.000000000000E+00  9.651385716551E+01  2.122061565532E-01 -6.598662458412E+01 -2.570622439774E+01 -5.931323387867E+01  5.874331669865E+00      196
 Si  1.602062977294E+01  3.583018252388E+00  1.942613615014E+01  0.000000000000E+00  2.196528186472E+01  1.134044273454E+01  1.363921818050E+01  5.921049699258E+01  1.124818971582E+01  5.062047332810E+00      197
 O   1.921656319339E+01  2.478180123914E+00  1.995001256776E+01  0.000000000000E+00 -2.393934487310E+00  5.046061043583E+00  4.720436518996E-01 -7.645760675633E+00  4.546892707942E-01  3.890692842882E-01      202
 O   1.656671732582E+01  2.327851875872E+00  2.022015860998E+01  0.000000000000E+00 -2.194515707653E+01 -2.244348366443E-01  4.178794358888E+01 -1.896477516967E+01  3.423756768765E+01 -4.159440269893E+00      205
 O   1.532019925508E+01  4.551355378177E+00  2.044865764170E+01  0.000000000000E+00 -1.546535985829E+01  4.689251233782E+00  2.630998628243E+01  2.106820608544E+01  1.971152528973E+01 -4.594479979961E+00      206
 Ca  1.368880964422E+01  5.332197315562E+00  1.906512214343E+01  0.000000000000E+00 -8.081763614802E+00 -1.379068933246E+00 -5.144345097435E+00 -4.930822342192E+00 -3.693653796349E+00 -3.148086602991E+00      209
 O   2.299912524116E+01  1.933774038443E+01  1.467858896402E+01  0.000000000000E+00  2.995715371403E+01  4.112728535586E+01 -2.370134008583E+01  3.121825533611E+01 -3.713640938878E+01  2.518807368124E+01      210
 O   1.305645943266E+01  1.729778272784E+01  4.056541877053E+00  0.000000000000E+00  1.399425817496E+01 -4.218373465022E+00  8.144950671121E-01 -1.126435153900E+00  3.319171329934E+00  1.854022053959E+01      212
 Si  1.302138686710E+01  3.911488787486E+00  1.448924527625E+01  0.000000000000E+00 -4.808843561163E+00 -1.732030019033E+00 -2.469036567216E+01 -6.386569323770E+00 -2.218906486691E+01 -1.446067848455E+00      213
 Si  1.125768821762E+01  5.475165795563E+00  1.650377987914E+01  0.000000000000E+00  1.404798073418E+01  3.221692671762E+00  1.800272915174E+00  9.711140936790E+00  1.228016329233E+00  6.832221867023E+00      214
 Si  9.261871490078E+00  6.600731094354E+00  1.451908917356E+01  0.000000000000E+00 -9.638663662979E+00  7.407438086349E-01  1.151339169033E+01  1.629353666828E+00  7.344507150282E+00 -6.869262547683E+00      215
 O   1.223542783531E+01  5.064490900848E+00  1.527603916164E+01  0.000000000000E+00  6.091840226292E+00  1.253603689477E+01  1.863023794410E+01  3.781248585208E+01  1.492199185324E+01  2.521535806573E+00      216
 O   1.391504436234E+01  2.936034746048E+00  1.538843122136E+01  0.000000000000E+00  3.278497198707E+00  3.075036835182E+00 -5.645904499681E+00  1.102512189425E+01 -5.105329480863E+00  5.806699700985E-01      217
 O   1.357318653505E+01  4.669310707234E+00  1.307597968709E+01  0.000000000000E+00  4.903663717070E+00 -5.513639905964E+00  1.981205595292E+01 -1.544044676672E+01  2.056539835080E+01  1.686908924419E+00      218
 O   1.159165986496E+01  3.216582852903E+00  1.395154151293E+01  0.000000000000E+00  4.016212426732E-01 -2.717317326311E+00 -1.530946893454E+01 -9.137868502746E+00 -1.271989596548E+01  7.037630907692E-02      219
 O   1.197920267544E+01  6.890512289694E+00  1.731333594850E+01  0.000000000000E+00 -2.008056095376E+00 -1.226075654639E+01 -2.623186669248E+01 -3.080679463963E+01 -1.814998845972E+01 -1.155046423244E+00      220
 O   9.758509096640E+00  5.677513311395E+00  1.598091671186E+01  0.000000000000E+00 -5.706382971040E+00  2.463931896992E+00 -2.408034909515E+01  6.935411379926E+00 -1.470430701394E+01 -3.319981050092E+00      222
 O   1.034252321952E+01  6.732916891517E+00  1.335612135577E+01  0.000000000000E+00 -4.086482548144E+00 -1.395907088321E+00  8.345187586751E+00 -2.769067964657E+00  6.462227624933E+00 -2.660274170171E+00      223
 O   2.032062741808E+01  2.075606076160E+01  1.167199603828E+01  0.000000000000E+00  1.805414156480E+01 -3.487531802687E+01  1.451742156217E+01 -1.961184150109E+01  2.527443580931E+01  1.844100832162E+01      224
 Ca  1.575586912983E+01  6.396881069484E+00  6.062796914289E+00  0.000000000000E+00  4.111560243324E+00  1.963226977280E+00 -5.645164229231E+00  1.860695287377E+00 -1.467053409005E+01  1.669292989796E+00      225
 Ca  1.657435616800E+01  3.631249414941E+00  1.662494760461E+01  0.000000000000E+00  3.815377460540E+00  1.026901785519E+00 -2.035552646432E+01  6.707189431415E+00 -2.029358249004E+01  1.195660069919E+00      226
 Si  2.084252256525E+01  2.579073301036E+00  1.974538309080E+01  0.000000000000E+00  1.076128198128E+01 -2.040241453976E+00  1.557004085195E+01 -1.127735014010E+00  1.643518012826E+01  4.013003583013E+00      228
 Si  2.240060747716E+01  4.991102996840E+00  2.068291318958E+01  0.000000000000E+00 -9.891668122282E+00 -1.041115445467E+01 -7.465540020856E+00 -4.314337009789E+01 -8.085545303961E+00 -2.203973015428E+00      229
 O   2.157370667344E+01  1.351382712204E+00  2.065374237962E+01  0.000000000000E+00 -1.623057281965E+00  4.221363973909E+01 -7.795645501748E+00  2.969193471687E+01 -8.142881144426E+00 -7.542777225830E+00      230
 O   2.100166090930E+01  4.177925751719E+00  2.024529872485E+01  0.000000000000E+00  7.129974660125E-01  1.334458561990E+00  2.272443411998E+01  6.608694909163E+00  2.357341653634E+01  1.313993114468E-01      236
 O   2.285905033010E+01  4.663936499682E+00  2.223139310875E+01  0.000000000000E+00 -1.291311977375E+01 -1.900663721832E+00  4.866399126146E+00 -8.606434367758E+00  5.003791800485E+00 -2.649593985763E+00      237
 H   1.287159574021E+01  1.641002993550E+01  4.485560154601E+00  0.000000000000E+00 -5.683776966644E+00  1.728069610356E+01 -2.841536236195E+00  4.771905599380E+00 -6.091325631915E+00 -7.246261617580E+00      243
 H   1.912549747106E+01  1.856337048900E+01  6.873810056536E+00  0.000000000000E+00  4.992722244560E+00  2.894533149565E+01 -5.836550436895E+00  1.071813498753E+01 -1.623945522242E+01  4.845978668773E+00      247
 H   1.169124676779E+01  6.705211672023E+00  5.665615504698E+00  0.000000000000E+00  2.799082166047E+01 -8.322401418452E+00  1.581143684116E+01 -7.032071293057E+00  3.262759530893E+01  1.605341054167E+01      248
 H   4.569705177599E+00  9.018942769485E+00  9.285206997231E+00  0.000000000000E+00  1.115914446708E+01 -1.398633208182E+01  6.840912844332E-01 -1.439924743187E+01  3.366748296895E-01  2.202410908222E+01      249