     8448
Lattice="     49.70      0.00      0.00      0.00     49.70      0.00      0.00      0.00     49.70" pbc="T T T" config_type=md Properties=species:S:1:pos:R:3:charge:R:1:forces:R:3:id:I:1
 Si  1.079565701014E+01  1.739379891134E+01  1.593043310273E+01  0.000000000000E+00 -2.039665035023E+00  3.569990570741E+00  2.916712608431E+01  3.269642029003E+00  1.976583355564E+01 -3.286277382874E+00        1
 Si  1.239691308491E+01  2.000825681321E+01  1.686150320926E+01  0.000000000000E+00 -5.786186349146E+00  7.053054781744E+01  4.182117551112E+00  5.943801448955E+01  3.074776142352E+00 -9.338736316845E+00        2
 Si  1.088034561142E+01  2.233627431834E+01  1.797366244614E+01  0.000000000000E+00  7.392878351353E+00 -2.091160195434E+01  1.920833823632E+01 -1.682725012143E+01  1.162775584878E+01  1.517684867332E+01        3
 O   1.113848842557E+01  1.922969786461E+01  1.639571851639E+01  0.000000000000E+00 -2.258404117925E+01 -6.231794332343E+01 -2.439729490715E+01 -5.313382791789E+01 -1.657438718937E+01 -3.898951741441E+01        4
 O   9.270316056667E+00  1.702665724389E+01  1.618455544826E+01  0.000000000000E+00 -4.059105120752E+00  2.689222421444E+01  1.534893880708E-01  2.556219272470E+01  8.791685031511E-02 -7.455300464997E+00        5
 O   1.135201418736E+01  1.746815315523E+01  1.449456229900E+01  0.000000000000E+00  7.853836282974E+00 -2.540906011906E+00 -2.970610417886E+01 -2.108369451436E+00 -2.326556050008E+01  1.208525753957E+01        6
 O   1.176883835954E+01  1.651775055295E+01  1.701055640692E+01  0.000000000000E+00  2.861530145362E+01  3.577162923966E+01 -5.643921462060E+01  3.683887312609E+01 -3.904775235566E+01  4.016202763334E+01        7
 O   1.304883055694E+01  2.129903717701E+01  1.596660882487E+01  0.000000000000E+00 -1.966872195417E+01  1.319314853918E+01 -3.035953479790E+00  9.890111000926E+00 -2.481155702571E+00 -3.210439727131E+01        8
 O   1.373046858612E+01  1.942707784148E+01  1.741510772513E+01  0.000000000000E+00  2.762090812533E+01 -5.217516283467E+01  1.324149807653E+01 -4.677162920519E+01  1.043989943919E+01  3.908049669518E+01        9
 O   1.176572856319E+01  2.089822608449E+01  1.806508111885E+01  0.000000000000E+00 -1.057668837708E+01  4.473321538464E+01  2.765025526858E+01  3.866879233497E+01  1.800852130432E+01 -1.878625906950E+01       11
 O   1.908844894344E+01  1.775341855315E+01  2.117158897166E+01  0.000000000000E+00 -1.941052610612E+01 -8.192352744047E+00 -1.183122490362E+01 -9.769674752418E+00 -1.066711302649E+01 -1.805296990446E+01       13
 Ca  3.580819860738E+00  1.570847733552E+01  1.689376013731E+01  0.000000000000E+00 -3.044407060242E+00  1.260844451719E+01  1.388587378229E+01  1.355981441285E+01  2.943264981816E+00 -1.335532117386E+01       14
 Ca  2.129269663274E+01  1.386894421286E+01  1.817036665227E+01  0.000000000000E+00  5.326126186242E-01 -6.383455461115E+00  3.169759893628E+00 -8.363270084345E+00  3.714439950788E+00  3.469158849241E-01       15
 O   6.561881651016E+00  4.344567699376E+00  1.590861166340E+01  0.000000000000E+00 -1.675716358108E+00  3.007333247835E-01 -5.973605219743E+00  1.365105741115E+00 -2.463954197338E+00 -1.124300219303E+00       16
 O   9.704185371982E+00  1.638464447167E+01  1.990820755993E+01  0.000000000000E+00 -6.689942360660E+00  6.948617066084E+00 -8.734019410002E+00  8.442936375291E+00 -4.257366874541E+00 -1.129536616560E+01       18
 Si  2.072650043880E+01  1.981154615774E+01  1.817957946864E+01  0.000000000000E+00 -2.595479393353E+01 -1.935582723280E+01 -3.978233778189E+01 -1.776140017332E+01 -4.535575990167E+01 -2.480904094480E+01       19
 Si  1.801951240674E+01  2.163974569145E+01  1.837016048039E+01  0.000000000000E+00  3.218901091089E+01 -4.107057840126E+01  3.192700447515E+01 -3.486515631981E+01  3.131758450691E+01  3.865598549218E+01       20
 O   1.902508828787E+01  2.007383208901E+01  1.830589141027E+01  0.000000000000E+00 -6.295201255179E+00  2.292757708324E+01 -7.558195974499E+00  2.090830163993E+01 -7.855140320082E+00 -6.642219528809E+00       22
 O   2.132876075662E+01  2.130121085372E+01  1.785655105143E+01  0.000000000000E+00  6.701770730463E+00 -2.105977053758E+01  4.446667945431E+00 -1.765415451348E+01  5.311323362450E+00  6.693114196920E+00       23
 O   2.118525184852E+01  1.877249052317E+01  1.681880307730E+01  0.000000000000E+00 -3.396341350168E+01  4.331234869943E+01  2.065468080070E+01  3.880475330069E+01  2.601698899753E+01 -3.009536363568E+01       24
 O   2.102712168808E+01  1.873267209982E+01  1.946159972845E+01  0.000000000000E+00 -1.319753423150E+01  8.724565106309E+00 -1.426654193253E+01  9.064056264853E+00 -1.541416520066E+01 -1.175743808174E+01       25
 O   1.843160679275E+01  2.236521997024E+01  1.980283023838E+01  0.000000000000E+00  1.986623161347E+01  8.526685324438E+00  1.536061893189E+01  7.549780516379E+00  1.429699112893E+01  2.410601772331E+01       26
 O   2.166428298594E+01  1.721326476582E+01  2.118022802684E+01  0.000000000000E+00 -1.312901619128E+01 -1.837114243682E+01  1.115425750436E+01 -2.260494979999E+01  1.140917797326E+01 -1.043160449676E+01       27
 O   1.849854510563E+01  2.245427178244E+01  1.705841782275E+01  0.000000000000E+00  2.046461311810E+00 -3.319363531870E+01  1.604085587103E+01 -2.521706808437E+01  1.739507725431E+01  2.484076354395E+00       29
 Ca  4.466280354701E+00  1.067842662489E+01  1.493747433435E+01  0.000000000000E+00 -1.435173075380E+00 -3.116447580146E+00 -6.376137801078E+00 -4.359430221139E+00 -1.906454756835E+00 -3.431354317767E+00       32
 Si  1.347902537291E+01  1.975774077678E+01  1.236030926758E+01  0.000000000000E+00  1.350441320852E+01  3.010548668921E+01  9.840919171069E+00  1.883378926435E+01  1.073160843536E+01  1.979495461539E+01       37
 Si  1.233236731648E+01  2.188662754125E+01  1.446443852050E+01  0.000000000000E+00  1.664804682054E+01 -5.648674480160E+01  1.948370496126E+01 -3.733097051456E+01  1.661178938455E+01  2.954579527999E+01       38
 O   1.317327679332E+01  2.075291383952E+01  1.374527108748E+01  0.000000000000E+00 -1.859172776200E+00 -3.489427022930E+01 -4.504859143358E+01 -2.311151134778E+01 -4.317394399330E+01 -2.928903191105E+00       40
 O   1.399386113283E+01  1.848373927191E+01  1.334196995754E+01  0.000000000000E+00  3.582196824015E+01 -3.982309301008E+00 -1.606831874179E+01 -2.874518530804E+00 -1.685341983428E+01  4.731531311285E+01       41
 O   1.464311345571E+01  2.047201851961E+01  1.133724833245E+01  0.000000000000E+00 -3.098656272414E+01 -2.193599673094E+01  1.642818096318E+01 -1.214798834420E+01  2.121852769390E+01 -4.332121634285E+01       42
 O   1.206703660572E+01  1.939108789532E+01  1.166375940795E+01  0.000000000000E+00  5.754612737202E+00 -7.939575655631E+00  3.058353097857E+00 -4.775662961688E+00  3.164096368440E+00  9.247357494359E+00       43
 O   1.277834077840E+01  2.321773880332E+01  1.375929890164E+01  0.000000000000E+00 -1.456168743413E+01  4.172964076363E+01  3.447953531219E+00  2.472982426018E+01  3.202134463753E+00 -2.645800900479E+01       44
 O   1.072814587549E+01  2.189953078287E+01  1.448280510004E+01  0.000000000000E+00  4.366699839921E+00  1.452059115783E+01 -2.790737512888E+00  9.602894863884E+00 -2.067240353762E+00  8.913812197720E+00       46
 O   8.291013958089E+00  2.146362071428E+01  1.476925337403E+01  0.000000000000E+00  3.245747174178E-01 -2.960702231847E+00  6.590178583780E+00 -2.037277960195E+00  3.699527744613E+00  8.402529127698E-01       47
 O   1.813623500005E+01  1.631534335673E+01  8.930657781518E+00  0.000000000000E+00 -3.834266154702E+01  5.563088000272E+00 -5.901290653942E+00  3.045111221543E+00 -1.198424536264E+01 -3.449302947105E+01       48
 Ca  6.953056484080E+00  2.076219483252E+01  1.290833402092E+01  0.000000000000E+00  1.462750789471E+00  4.124802707552E+00  4.099355190253E+00  2.564484706410E+00  2.208112072397E+00  4.367851311430E+00       49
 Si  2.102890838131E+01  2.067703461637E+01  2.288736929745E+01  0.000000000000E+00  3.398242336187E+01  3.328898593228E+01 -6.216014326893E+01  3.684751361622E+01 -5.711272190279E+01  3.341380025346E+01       51
 Si  1.954141073183E+01  2.282487627591E+01  2.104236329735E+01  0.000000000000E+00  5.816822939883E+01 -1.091244431441E+02 -9.177569407955E+01 -1.006023493622E+02 -8.522933036865E+01  6.794200569433E+01       52
 O   1.988196738334E+01  2.138594613589E+01  2.199133239837E+01  0.000000000000E+00 -2.622412408749E+01  4.667563938913E+01 -3.289629686580E+01  4.799691789133E+01 -2.974094927360E+01 -2.820785762207E+01       54
 O   2.034211117368E+01  1.937841035923E+01  2.347892275249E+01  0.000000000000E+00 -1.120065846381E+01 -4.164188778771E+01  4.165474487925E+01 -5.045339883463E+01  3.608962217636E+01 -1.067003095952E+01       55
 O   2.228301726377E+01  2.013373198659E+01  2.186495628016E+01  0.000000000000E+00 -4.183056716348E+01  4.225598777779E+01  6.386994886407E+01  4.588942208785E+01  6.509115110676E+01 -3.779584327145E+01       56
 O   2.138732375925E+01  2.176058259487E+01  2.400668161661E+01  0.000000000000E+00  1.322953614109E+01  7.354978393073E+00  8.605340893019E+00  8.114149692900E+00  7.666416153508E+00  1.346042249749E+01       57
 O   1.646598728856E+01  2.137009656896E+01  1.845660107844E+01  0.000000000000E+00  9.878893254964E+00 -1.008898079261E+01 -5.479310595805E-01 -8.713498002984E+00 -4.888346355713E-01  1.282115060296E+01       58
 O   1.550791933397E+01  1.449831813619E+01  1.239199729810E+01  0.000000000000E+00 -3.468984734346E+01  4.238774895037E+01 -1.900743790281E+01  3.622964164057E+01 -2.378678809004E+01 -3.243145853743E+01       59
 H   3.334849488884E+00  7.493734994647E+00  1.551134447246E+01  0.000000000000E+00  2.303679690089E+00 -1.584934966085E+01 -8.540745483456E+00 -3.280670085473E+01 -1.869727438443E+00  4.330767551417E+00       70
 H   1.369615643939E+01  1.846695986943E+01  1.767184634967E+01  0.000000000000E+00  5.918478162285E+00  1.217684010659E+01 -1.032268174955E+00  1.165255401590E+01 -8.000356121165E-01  7.980070846493E+00       73
 H   1.773821100499E+01  1.198267779811E+01  1.668850264079E+01  0.000000000000E+00  5.902501123824E+00  3.970889306885E+01 -2.583571554829E+01  5.530332852200E+01 -2.746078445292E+01  3.987311299311E+00       83
 Si  1.818738324485E+00  2.074015161266E+01  2.163831503075E+01  0.000000000000E+00  1.442763430299E+01  8.946817018816E+01 -4.204125868909E+01  9.334263740748E+01 -1.725678245862E+00  1.331094866855E+01       89
 Si  2.481283810729E+00  2.065773145050E+01  1.856030688962E+01  0.000000000000E+00  1.685877820493E+00 -1.871651522410E+01  3.097678938620E+00 -1.681618658350E+01  6.544473165721E-01  6.981350630140E+00       90
 O   1.712383870853E+00  2.027139417318E+01  2.001523742584E+01  0.000000000000E+00  3.740933271306E+00 -7.285697810793E+00 -2.150413344626E+01 -7.193633069840E+00 -2.538773575544E+00 -2.048735840631E+01       92
 O   1.211068374760E+00  1.974682879296E+01  2.264506291980E+01  0.000000000000E+00  1.988643727742E+01 -3.000137402956E+01  3.626010584390E+01 -3.440466364007E+01 -1.567455394878E+01 -2.458545341240E+01       95
 O   1.961639728807E+00  2.014900195871E+01  1.708485068511E+01  0.000000000000E+00  4.909421689879E+00 -1.764487960209E+01 -5.551038103599E+00 -1.496154171687E+01  5.421494634362E-01 -2.271544698995E+01       96
 O   3.934257937976E+00  1.998878230494E+01  1.853749248289E+01  0.000000000000E+00  4.577456309299E+00  2.844969375234E+00  1.514303662714E+01  2.638409764181E+00  3.167987786842E+00  2.411190076630E+01       97
 O   1.139983095356E+01  1.463452770694E+01  2.066663558620E+01  0.000000000000E+00  1.091262134807E+01  2.940338743100E+01  1.525139021016E+01  4.152297260322E+01  8.412751532649E+00  1.400907260153E+01       98
 O   3.791762265025E+00  1.186770310503E+01  2.091608839930E+01  0.000000000000E+00  3.124822459860E+00  1.383109110518E+01 -1.189098632366E+01  2.437643760164E+01 -2.004944078464E+00  9.506166452346E+00      101
 Ca  2.194871221721E+01  2.372188092526E+01  1.813402789349E+01  0.000000000000E+00 -1.373585995581E+01 -2.664959660686E+01  1.291467861705E+01 -2.037209990816E+01  1.563141768659E+01 -1.484553768135E+01      102
 O   1.588923853747E+01  4.583318832535E+00  1.190457371837E+01  0.000000000000E+00 -4.778719914554E+00  2.288975590963E+00  2.848230632625E+01  6.672857672410E+00  3.801582232353E+01 -1.380585059771E+00      105
 Si  5.571008304576E+00  1.564312361671E+01  2.014296069897E+01  0.000000000000E+00 -1.998276123578E+01  3.444486250719E+00 -1.344242031326E+01  4.435313104747E+00 -3.717816676403E+00 -5.611063332248E+01      107
 Si  8.344878671348E+00  1.666664471709E+01  2.082982978986E+01  0.000000000000E+00  2.933232699859E+01  4.503027230784E+01 -3.135627601810E+01  5.627844857107E+01 -1.256199986251E+01  5.858341290086E+01      108
 Si  7.626766198225E+00  1.977388444558E+01  1.992954069298E+01  0.000000000000E+00  8.343582981892E+00  3.711350858939E+01  4.624048163424E+01  3.740565905131E+01  1.769560813019E+01  2.163237228702E+01      109
 O   7.099713503199E+00  1.588634851734E+01  2.033623814384E+01  0.000000000000E+00  7.188092943848E+00 -2.217436970307E+01 -1.258204685589E+01 -2.838558290968E+01 -4.392598440716E+00  1.608410672199E+01      110
 O   5.068268080873E+00  1.608648508995E+01  1.862686667219E+01  0.000000000000E+00  3.225001651690E+00 -1.372806817549E+01  4.824634981965E+00 -1.589600799315E+01  1.312756670851E+00  1.023602938068E+01      111
 O   4.908145470560E+00  1.684589363241E+01  2.105647852742E+01  0.000000000000E+00 -1.439729489689E-01 -7.094231888054E+00  7.020267825898E+00 -8.867415684732E+00  1.636384530630E+00 -4.941485534245E-01      112
 O   5.300613283682E+00  1.402067193220E+01  2.066412595891E+01  0.000000000000E+00  1.325879037792E+00  2.702849059408E+01 -2.392409896758E+01  3.983547556180E+01 -6.136838162906E+00  3.507087579450E+00      113
 O   8.819297775120E+00  1.617277416160E+01  2.226555688779E+01  0.000000000000E+00 -1.425358268966E+00 -6.017588435176E+00  3.906894942888E+01 -8.284599555520E+00  1.547505416149E+01 -2.613813250347E+00      114
 O   1.147239228390E+01  1.360428166622E+01  3.457341736674E+01  0.000000000000E+00  1.607185631562E+01 -6.741014793919E+00  1.767526792400E+02 -1.713136523219E+01  5.865130576944E+01  1.905845396548E+01      115
 O   8.109854070533E+00  1.831124245662E+01  2.045462578112E+01  0.000000000000E+00 -8.108314006015E-01 -2.142208571033E+01  2.549146345854E+01 -2.392960213890E+01  1.010686046791E+01 -1.830776514439E+00      117
 O   6.187126930868E+00  2.028158880875E+01  2.047773039320E+01  0.000000000000E+00 -2.523964207827E+00 -1.694518407589E+01  6.372992393068E+00 -1.710905956340E+01  1.925531399635E+00 -8.273630847263E+00      118
 O   6.443207616135E+00  9.304321753164E+00  2.235123752972E+01  0.000000000000E+00 -9.002803695882E+00  6.556203113097E+00  5.497052029991E+01  1.574959002510E+01  1.584639215561E+01 -1.300050956876E+01      119
 Ca  2.317167303259E+01  1.891064206457E+01  2.055879708390E+01  0.000000000000E+00 -3.217492883678E+00 -6.684979814700E+00 -5.277833918275E+00 -7.267608527044E+00 -5.948608830347E+00 -2.625829226184E+00      120
 Ca  3.500582693619E+00  1.270491104773E+01  1.853071338186E+01  0.000000000000E+00 -8.911305872599E+00 -6.196619939078E+00  1.407816890376E+01 -9.038063123461E+00  3.188160008193E+00 -1.347396931316E+01      121
 Si  1.040515483493E+00  1.732688855081E+01  1.381426821820E+01  0.000000000000E+00 -2.201367482145E+02  6.616317907408E+00 -1.146273901650E+00  5.275014606448E+00 -9.442841676933E+01 -4.934898301226E+01      125
 Si  2.737122616309E+00  1.925194361414E+01  1.582388906910E+01  0.000000000000E+00 -4.186309160390E+00 -4.012720188717E+01  2.250220145220E+01 -3.298204088078E+01  3.433988097496E+00 -3.441843312506E+01      126
 Si  3.259843013533E+00  2.059142345747E+01  1.311682857835E+01  0.000000000000E+00  7.154777742447E-01 -5.611362534315E+01 -5.935251037550E+00 -3.574462960543E+01 -2.554089631386E+00  1.316861962576E+01      127
 O   1.481255460111E+00  1.839445451053E+01  1.501976935278E+01  0.000000000000E+00  1.946076022535E+01  1.754188205466E+01 -1.497184538356E+01  1.432361162566E+01  1.144456377507E+01  6.128587247783E+00      128
 O   1.978383415581E+00  1.654629065956E+01  1.271990874074E+01  0.000000000000E+00  9.341479507820E+00  2.396180622052E+01  1.069040700014E+01  1.842056293216E+01  1.312069033852E+00 -2.861180940931E+00      129
 O   1.954424513499E-01  1.621812006691E+01  1.480019906560E+01  0.000000000000E+00  6.684346596714E+00 -2.859876400234E+01  7.986675467976E+00 -2.609842562013E+01  1.566428967461E+01  1.822794770314E+01      131
 O   3.502558160136E+00  1.793045868039E+01  1.639652647334E+01  0.000000000000E+00  4.160498615279E+00  1.489213543568E+01 -6.681529963684E+00  1.361812864178E+01 -1.435461524386E+00  2.135521629492E+01      132
 O   2.438359506022E+00  4.669603864301E+00  9.710595740749E+00  0.000000000000E+00  8.523075130958E+00  3.783720057260E+00  2.315680296946E+01  7.868371052437E+00  3.353899352095E+00  2.383489308397E+00      133
 O   3.269672598672E+00  2.037624317354E+01  1.484545745999E+01  0.000000000000E+00  4.797295600706E+00  1.499556447665E+01 -2.849652856828E+01  1.092527276155E+01 -5.784811018152E+00  1.528867413462E+01      134
 O   1.772341270842E+00  2.069265263071E+01  1.245921061143E+01  0.000000000000E+00  3.727835277623E+01  9.365497094776E-01  1.052536979919E+01  5.639040236505E-01 -1.839617388131E+00 -5.574265151680E+00      135
 O   8.111174381720E+00  1.526650048506E+01  1.200267582225E+01  0.000000000000E+00  4.301971879065E+00  7.068998476757E-01 -2.317756471496E+00  5.557717512768E-01 -1.566294649049E+00  8.096984812272E+00      136
 Si  8.636119771032E+00  1.414706241323E+01  2.574321055539E+01  0.000000000000E+00  3.262657790797E+01  4.554782427168E+01  2.026476621142E+01  8.288273539172E+01  6.798256486200E+00  5.344648363289E+01      139
 Si  8.920312441010E+00  1.656933660748E+01  2.389545038463E+01  0.000000000000E+00  4.042680392362E+00  8.874847892964E+00 -5.203718527971E+00  1.279885203140E+01 -1.942578791251E+00  7.509213680627E+00      140
 O   8.134454831268E+00  1.549114955853E+01  2.487590063365E+01  0.000000000000E+00  8.574321619180E+00 -1.236974573207E-01 -8.306436240518E+00 -1.986350751646E-01 -2.716216445884E+00  1.632882612552E+01      142
 O   7.665658907800E+00  1.302976285453E+01  2.523795901324E+01  0.000000000000E+00 -1.394356676237E+01 -2.869895184333E+01  2.129697089994E+00 -5.558834634454E+01  6.468641723471E-01 -2.370068515247E+01      143
 O   8.008425286292E+00  1.791250549802E+01  2.391313650958E+01  0.000000000000E+00  1.876269407593E+00  9.288215450507E+00 -2.539232533683E-01  1.239973738029E+01 -8.503800420480E-02  4.196665995849E+00      148
 O   1.307869171252E+01  1.620286525914E+01  1.063838353283E+00  0.000000000000E+00  2.368921497945E+00 -2.404046847650E+00  6.216891770140E+01 -5.497788134402E+00 -1.580693232811E+01  2.934797813450E+00      150
 Ca  4.707282557225E+00  1.183605325502E+01  7.241723798942E+00  0.000000000000E+00 -3.044112205897E+00  8.437254070345E-01  7.019645689492E+00  5.162216009209E-01  4.562926815418E+00 -7.654155820318E+00      151
 Ca  1.204267625877E+01  2.170862030437E+01  1.037754906213E+00  0.000000000000E+00  1.469514168499E+01 -6.809247494418E+00 -4.979114049563E+01  1.075383225020E+01  7.105993530617E+00  2.649006286505E+01      152
 H   7.040832339633E+00  1.836910016727E+01  1.539971352723E+01  0.000000000000E+00  2.241854073504E+01 -5.316142503251E+01  8.554438530159E+00 -4.456781816991E+01  3.911135576908E+00  5.848859914587E+01      155
 H   1.153269872907E+01  1.384982895933E+01  3.371175062143E+01  0.000000000000E+00 -9.479540461262E+00  1.300080005387E+01 -1.450094342989E+02  3.164513659930E+01 -4.960733535975E+01 -1.138415362145E+01      156
 H   1.524727505495E+01  1.523015863787E+01  1.162432935674E+01  0.000000000000E+00  1.349236237336E+01 -4.365022194427E+01  3.819961392769E+01 -3.331577618064E+01  5.010525791845E+01  1.347721600124E+01      159
 H   1.634238669967E+01  4.039157202573E+00  1.264973495945E+01  0.000000000000E+00 -7.838313368277E+00  1.619795629891E+00 -1.623594879442E+01  4.332745448168E+00 -2.097547138221E+01 -1.835720519151E+00      160
 H   1.686336891423E+01  1.704190924559E+01  1.621971588288E+01  0.000000000000E+00  4.550168259855E+00 -4.252923994022E+00 -3.552109750289E+00 -4.047740065999E+00 -3.693069445574E+00  4.598343007915E+00      164
 H   1.955894829723E+01  6.236815827423E+00  4.383178882834E+00  0.000000000000E+00  3.969281788241E+01  1.311960167047E+01  7.968922192578E+00  9.157961486656E+00  3.439824952818E+01  1.265695839276E+01      168
 H   5.111836559273E+00  1.948438228380E+01  3.366937415015E+01  0.000000000000E+00 -2.674718123046E+00 -2.466561199039E+01  7.105493580228E+00 -4.262263522911E+01  1.078788150119E+00 -1.019501108976E+01      169
 Si  1.266415745139E+01  6.188014543418E-01  1.965755613550E+01  0.000000000000E+00 -2.492539954547E+01 -1.040874683768E+02  4.747729035893E+00  5.354595454081E+01  3.058670550533E+00 -7.844129177008E+01      177
 Si  1.128872287307E+01  3.636357829041E+00  1.905141177962E+01  0.000000000000E+00  2.153711172474E+00 -3.347178627668E+00  3.515723511082E-02 -2.737688168884E+01  2.083206686939E-02  2.766793684631E-01      178
 Si  8.403720810462E+00  3.746943453836E+00  1.972039301223E+01  0.000000000000E+00 -1.069701935322E+00  3.758842348018E+00  5.408979882232E+00  1.935060246866E+01  2.305002581414E+00 -4.536277364991E-01      179
 O   1.201963848649E+01  2.190255686915E+00  1.898638911057E+01  0.000000000000E+00  2.309468393670E+01 -1.213538778972E+01  1.185056363822E+01 -6.474870848622E+01  7.502189592927E+00  4.243910638599E+00      180
 O   1.223366496574E+01  4.352525046296E-01  2.121034193485E+01  0.000000000000E+00 -5.248808361513E+00  2.769460822387E+00 -2.975217930603E+01  1.840955626100E+00 -1.716041140443E+01  6.812592216293E+00      182
 O   1.162991463462E+01  4.267197792242E+00  1.751524532584E+01  0.000000000000E+00  7.890348520267E+00  3.864536815303E+00  2.704792800130E+01  1.613309720947E+01  1.795950258455E+01  2.856680307350E+00      184
 O   1.178573705444E+01  4.166433546857E+00  2.048336620278E+01  0.000000000000E+00 -5.314515922450E+00  5.661941181103E+00 -8.509111235268E+00  2.771481472540E+01 -4.895979820555E+00 -1.879697485477E+00      185
 O   9.721816561719E+00  3.200259077694E+00  1.865556258524E+01  0.000000000000E+00 -2.146026862817E+01  3.319185957553E+00  2.670011508710E+01  1.779301166388E+01  1.391400660621E+01 -7.047717119818E+00      187
 O   6.898434327603E+00  4.041655588897E+00  1.911771449742E+01  0.000000000000E+00  8.215470818844E+00  3.233042489213E-01  7.154313610857E+00 -2.089630089381E-01  2.581561860349E+00  4.829382183023E+00      188
 Ca  1.142457590507E+01  5.049182112019E+00  2.270853171554E+01  0.000000000000E+00 -3.582166529807E+00 -2.897150410674E+00 -4.562019571784E+00 -1.302983939297E+01 -2.295134689073E+00 -1.583166965222E+00      190
 O   1.575964110017E+01  1.937251460500E+01  7.815572937807E+00  0.000000000000E+00  3.646660918462E-01  7.445268307370E-01 -3.230049877683E+00  3.003690469939E-01 -6.513204753255E+00  4.482652330301E-01      193
 O   4.237634417261E+00  1.242022895160E+01  1.304912146436E+01  0.000000000000E+00  8.879087942588E+00  5.530460861957E+00 -1.442814003075E+01  5.810493173900E+00 -4.685463533952E+00  2.602402526257E+01      194
 Si  1.833947066499E+01  1.499687860021E+00  2.005256621868E+01  0.000000000000E+00 -6.001896087045E+01  6.646412868975E+00  1.647298361282E+01  3.744035540971E+01  1.506569266186E+01 -5.807000600225E+00      196
 Si  1.682605781578E+01  4.184100302739E+00  1.916285673801E+01  0.000000000000E+00  5.057909658544E+00 -4.051275753172E+00  2.432357659814E+01 -1.751957781707E+01  2.135745790527E+01  1.282432350064E+00      197
 O   1.986045753933E+01  1.482476232651E+00  2.053019176463E+01  0.000000000000E+00  1.473338046802E+01  1.665411917621E+01 -8.860602331657E+00  8.011688852786E+00 -8.571552491969E+00 -3.165557946981E+00      202
 O   1.780169992873E+01  3.178570191998E+00  2.008402567804E+01  0.000000000000E+00  5.865584575312E+00 -2.703539642963E+00 -6.719377534308E+00 -2.839109251844E+01 -5.955795142425E+00  1.270735324575E+00      205
 O   1.568030601852E+01  5.094332519715E+00  1.983302067079E+01  0.000000000000E+00 -1.871705534751E+01  2.919794411128E+00  2.503504732349E+01  1.136720908701E+01  1.979311219085E+01 -6.080933855344E+00      206
 Ca  1.428582472469E+01  5.211812748408E+00  1.789558823155E+01  0.000000000000E+00  1.482126079397E+00  1.456628079308E+00  7.837175803527E+00  5.001564248789E+00  6.256319625660E+00  5.407152715515E-01      209
 O   2.374306768390E+01  1.912467859056E+01  1.493302289604E+01  0.000000000000E+00  4.843059511275E+01  3.030815151521E+01  2.046090188051E-01  2.366535564873E+01  3.253223286433E-01  3.901010508888E+01      210
 O   1.468783049521E+01  1.797533152138E+01  4.899316680057E+00  0.000000000000E+00  1.413300061740E+00  4.080758073094E+01  7.873358979998E+00  1.112242412386E+01  2.360381450680E+01  1.729631694568E+00      212
 Si  1.320640368149E+01  3.521232977265E+00  1.488340214398E+01  0.000000000000E+00 -2.168877440349E-01  2.622563277084E+00 -2.416655321113E+01  1.284128097054E+01 -2.144356876264E+01 -1.283542446088E-01      213
 Si  1.128289799761E+01  5.035403349391E+00  1.614418535757E+01  0.000000000000E+00 -2.311548670496E-01  2.472998901538E+00 -4.733608198541E+00  7.928769531504E+00 -3.308238680483E+00 -1.031612615851E-01      214
 Si  9.166144454015E+00  6.160130719339E+00  1.480618904216E+01  0.000000000000E+00  1.560341581441E+01 -2.055920187293E+00 -1.429148181002E+01 -4.941509252895E+00 -8.847501970939E+00  1.048631532780E+01      215
 O   1.153358060976E+01  3.748276667168E+00  1.504225765981E+01  0.000000000000E+00 -1.608337298650E+00  7.637618906582E+00  1.648731817347E+01  2.856000587121E+01  1.264157399062E+01 -4.402839715949E-01      216
 O   1.408875891650E+01  3.410772075208E+00  1.622949407736E+01  0.000000000000E+00  3.755394253743E+00  8.653451442287E+00 -7.539289808727E+00  3.655092181921E+01 -6.544827337837E+00  9.225666708273E-01      217
 O   1.377532803027E+01  4.509202376632E+00  1.368435887142E+01  0.000000000000E+00 -3.066483032853E+00  4.179600778503E-01  1.915920974826E+01  1.268409625806E+00  1.928657393180E+01 -1.003779550604E+00      218
 O   1.309005189294E+01  2.035942154512E+00  1.446197130670E+01  0.000000000000E+00 -2.070066218603E+00  2.726176551663E-01 -1.242661049368E+01 -3.056611335349E+01 -1.124777340280E+01 -1.760429970750E+00      219
 O   1.262740057022E+01  6.101897020032E+00  1.601186460286E+01  0.000000000000E+00 -9.895949182874E+00 -1.196634357681E+00  9.819554921965E+00 -3.140064024585E+00  7.743973390754E+00 -4.781986798754E+00      220
 O   9.623503098299E+00  5.530298822175E+00  1.628930323153E+01  0.000000000000E+00  1.450772855310E+01 -5.924690382096E+00 -1.302708044424E+01 -1.745096988248E+01 -7.696225383922E+00  8.337096513620E+00      222
 O   1.058939855520E+01  6.716145885889E+00  1.422653208308E+01  0.000000000000E+00 -1.022300768388E+01 -8.676971029092E+00 -2.268499324279E+00 -1.838006630986E+01 -1.688538241555E+00 -6.483768708829E+00      223
 O   2.126424585299E+01  2.039623200353E+01  1.323377691290E+01  0.000000000000E+00  9.178264009776E+00 -2.323781861670E+00 -3.206306086034E+01 -1.507749605234E+00 -5.151944251601E+01  8.803604107443E+00      224
 Ca  1.569900809749E+01  7.949590340388E+00  6.569407924846E+00  0.000000000000E+00 -1.484391957842E-01 -7.162356955865E+00  3.102104809609E+00 -5.918851479350E+00  7.413144241069E+00 -7.516594612939E-02      225
 Ca  1.632022668277E+01  4.302739400451E+00  1.561448589270E+01  0.000000000000E+00  1.468681415744E-01  4.446546152349E+00  2.157944522720E+01  1.691915604136E+01  2.255478920128E+01  1.279305400053E-01      226
 Si  2.111003099797E+01  2.583508644453E+00  2.000865653434E+01  0.000000000000E+00  1.716361057690E+00 -4.025642610815E+00  1.116042307516E+02 -4.125628378356E+01  1.177474742808E+02  2.001384290247E+00      228
 Si  2.251901587118E+01  4.552282190793E+00  2.137258482759E+01  0.000000000000E+00 -1.951013291871E+01 -1.023534519989E+01  5.909783046966E+00 -4.782194926229E+01  6.226785356260E+00 -3.943730853633E+00      229
 O   2.228735309716E+01  1.453030037192E+00  2.038233939700E+01  0.000000000000E+00  2.931881356937E+01  3.858860041881E+01  2.863315418985E+01 -2.904641763438E+01  3.130932153001E+01  5.162895604980E-01      230
 O   2.103950874827E+01  3.821196483394E+00  2.108380445255E+01  0.000000000000E+00  5.333487229287E-01 -4.357878445635E-02  1.018916671691E+01 -3.615379625248E+00  1.016775993917E+01  1.267225547301E-01      236
 O   2.289334938619E+01  4.220088898849E+00  2.310570415183E+01  0.000000000000E+00  1.288314498352E+01  5.240384511667E+00 -1.534318865986E+01  3.152554210903E+01 -1.520217589475E+01  2.344744081221E+00      237
 H   1.496624244406E+01  1.871299361766E+01  5.612269464673E+00  0.000000000000E+00  6.368425714695E+00 -4.887534543167E+01 -6.928936357341E+00 -1.465834993299E+01 -1.847739885908E+01  7.962740828173E+00      243
 H   1.935506167583E+01  1.687205350496E+01  5.968481286466E+00  0.000000000000E+00  1.919514710900E+00  9.472826585429E+00  1.021581233489E+01  3.351008114598E+00  3.312864166281E+01  1.673265394257E+00      247
 H   1.259366753147E+01  6.747990042682E+00  6.314629327753E+00  0.000000000000E+00  8.522284145681E+00 -3.615868958713E+00 -4.865160339173E+00 -3.383655285142E+00 -9.702899191497E+00  4.566444874952E+00      248
 H   5.568429312820E+00  9.851641990176E+00  1.022048862952E+01  0.000000000000E+00  4.395935725706E+00  1.110990660748E+01 -4.626508364524E+00  1.152586282267E+01 -2.520660775318E+00  7.777271210353E+00      249