     8448
Lattice="     49.70      0.00      0.00      0.00     49.70      0.00      0.00      0.00     49.70" pbc="T T T" config_type=md Properties=species:S:1:pos:R:3:charge:R:1:forces:R:3:id:I:1
 Si  1.044236280063E+01  1.781886743706E+01  1.623551694446E+01  0.000000000000E+00  1.120834571808E+01 -5.817411991884E+00  6.643210363663E+00 -5.300487884584E+00  4.272781274263E+00  1.912594212175E+01        1
 Si  1.223705940841E+01  2.029940447080E+01  1.672847032054E+01  0.000000000000E+00 -3.924781496955E+01  1.286465001390E+01 -2.147524253363E+01  1.060158765994E+01 -1.570937531398E+01 -6.510610466713E+01        2
 Si  1.075625054752E+01  2.246086969236E+01  1.770454863181E+01  0.000000000000E+00  2.272631600199E+01  3.359058988042E+01  7.834061184007E+01  2.647743565830E+01  4.759518395653E+01  4.745639012895E+01        3
 O   1.073904408210E+01  1.950684320977E+01  1.638583436200E+01  0.000000000000E+00  9.099112603985E+00 -9.586044185349E+00 -1.460871256514E+01 -8.052319410107E+00 -9.574343591780E+00  1.652800394123E+01        4
 O   8.935232531019E+00  1.766624260279E+01  1.573023502331E+01  0.000000000000E+00 -3.580514665426E+00  4.160827259443E+00 -1.159036743416E+01  3.704850666553E+00 -6.583666931279E+00 -7.079193574724E+00        5
 O   1.148642852776E+01  1.718673056564E+01  1.511964179352E+01  0.000000000000E+00 -3.359512182814E+00  1.583435091715E+00 -2.564349074997E+00  1.392991604691E+00 -1.948142209480E+00 -5.026717449944E+00        6
 O   1.065382970767E+01  1.716211734271E+01  1.771276774735E+01  0.000000000000E+00 -3.682791705605E+00 -9.399796823759E+00  1.826268525226E+01 -9.701391424303E+00  1.098459266545E+01 -5.932561823740E+00        7
 O   1.271486760697E+01  2.145480834953E+01  1.560986855331E+01  0.000000000000E+00 -5.949550450098E+00 -2.154452044301E+01  7.867889817476E+00 -1.567514035459E+01  6.408713630980E+00 -1.003915012082E+01        8
 O   1.341049868623E+01  1.944539210340E+01  1.722287360770E+01  0.000000000000E+00  3.810025737637E+01 -2.569031348401E+01  1.096787581871E+01 -2.275402932092E+01  8.540078015305E+00  5.524585336146E+01        9
 O   1.162736624210E+01  2.097502225128E+01  1.804537673497E+01  0.000000000000E+00 -1.191424289835E+01  8.885270841227E+01  1.384997117551E+01  7.644237884534E+01  8.924096718255E+00 -2.149252932234E+01       11
 O   1.920792862672E+01  1.787903449427E+01  2.125149943678E+01  0.000000000000E+00 -6.124751984007E+01  2.252183291806E+01  6.594167847572E+00  2.677005403882E+01  5.960064406069E+00 -5.701013061793E+01       13
 Ca  3.073801038860E+00  1.634097838180E+01  1.644468454353E+01  0.000000000000E+00 -5.027202355152E-01  4.675800663598E+00 -1.081208177156E+01  4.705475100985E+00 -2.634378972204E+00  6.808010544488E-01       14
 Ca  2.026595683865E+01  1.441134727930E+01  1.850240668826E+01  0.000000000000E+00  7.663978377744E+00 -8.545483048735E-01  1.286589426106E+01 -1.097135470064E+00  1.409220228365E+01  5.449940253108E+00       15
 O   7.479222094786E+00  4.314722572071E+00  1.631719316570E+01  0.000000000000E+00 -2.137645676691E+01  1.466501938374E+00  1.237142408239E+01  5.545979394967E+00  5.670621619870E+00 -1.233196065124E+01       16
 O   9.378761018062E+00  1.672705760339E+01  2.001343786548E+01  0.000000000000E+00  2.705815700934E+00 -5.379455957002E+00 -2.280792532424E+01 -6.436362574833E+00 -1.068832263460E+01  4.825833071823E+00       18
 Si  2.030007455740E+01  2.021026741260E+01  1.825138644878E+01  0.000000000000E+00 -3.096114198667E+00 -5.958979811885E+01  2.322427075523E+01 -5.381405459256E+01  2.583115694774E+01 -3.082417048178E+00       19
 Si  1.819945307109E+01  2.229506781123E+01  1.882479310930E+01  0.000000000000E+00  1.417663414663E+01 -7.812705453095E+01 -4.379172698023E+01 -6.596641240281E+01 -4.233701137916E+01  1.736695154516E+01       20
 O   1.908634126163E+01  2.076260291892E+01  1.916477745654E+01  0.000000000000E+00 -4.386231383008E+00  1.322321816053E+00 -1.537201782775E+01  1.220560034285E+00 -1.530910436115E+01 -4.771453012788E+00       22
 O   2.142593695454E+01  2.128230687411E+01  1.791137164610E+01  0.000000000000E+00  8.664754650562E+00 -9.447276808043E-01 -5.447381581451E+00 -7.950909032249E-01 -6.516265567906E+00  8.606669937164E+00       23
 O   1.981504786785E+01  1.950630030289E+01  1.687811670203E+01  0.000000000000E+00  5.570981482135E+00  1.146801986562E+01  3.986347167590E+00  9.922874898240E+00  4.680004371234E+00  5.484177403813E+00       24
 O   2.111444880971E+01  1.873564084161E+01  1.939424045109E+01  0.000000000000E+00 -2.694269914557E+01  3.588013337334E+01 -1.105220770453E+01  3.714140017642E+01 -1.203250389723E+01 -2.390726554334E+01       25
 O   1.852248036024E+01  2.283804785359E+01  2.020845031377E+01  0.000000000000E+00  2.724542913268E+01  4.650980465730E+01  8.279952206242E+01  4.115461542711E+01  7.589164420953E+01  3.359336342768E+01       26
 O   2.153096868974E+01  1.690431187569E+01  2.112958548702E+01  0.000000000000E+00 -1.365428726481E+01  1.411847872178E+01  2.312570590717E+00  1.764742660289E+01  2.356500794212E+00 -1.072020184929E+01       27
 O   1.924689915129E+01  2.290889382160E+01  1.752912282024E+01  0.000000000000E+00 -3.826999546554E+01  6.035388966221E+00  2.911510033497E+00  4.618078693832E+00  3.196825110268E+00 -4.555140315236E+01       29
 Ca  5.231854649137E+00  1.028046087353E+01  1.466233620501E+01  0.000000000000E+00 -3.385672701359E+00 -4.558849273742E+00  6.451189745685E+00 -6.501982895697E+00  2.301931055973E+00 -6.652760458977E+00       32
 Si  1.402372968380E+01  1.965332026632E+01  1.309362995902E+01  0.000000000000E+00  2.303227308521E+01  3.368136970037E+01  9.830397080704E+00  2.243953619000E+01  1.052869462293E+01  3.227819200820E+01       37
 Si  1.241893635554E+01  2.198380374721E+01  1.403607732123E+01  0.000000000000E+00 -5.131190708310E+01 -1.033142772081E+02  1.444954154232E+01 -6.596343380584E+01  1.278476405295E+01 -9.083152235551E+01       38
 O   1.251936453164E+01  2.051121951712E+01  1.299966372602E+01  0.000000000000E+00  8.349110961603E+00 -1.651012555604E+00  1.514718008507E+01 -1.046383810206E+00  1.458753650157E+01  1.367884506226E+01       40
 O   1.436380818905E+01  1.871085497857E+01  1.448789455146E+01  0.000000000000E+00 -7.349014239186E+00  2.113621094062E+01 -2.425351993798E+01  1.636585798329E+01 -2.404579264854E+01 -9.573111660578E+00       41
 O   1.529269141294E+01  2.080325966343E+01  1.303368322675E+01  0.000000000000E+00 -2.206468451705E+01 -2.289643144933E+01  2.535350426205E+00 -1.434509972772E+01  2.974779348024E+00 -3.001547268595E+01       42
 O   1.428526465034E+01  1.880200586115E+01  1.172964669910E+01  0.000000000000E+00 -1.823220767921E+01 -1.919096938086E+01  1.910162320101E+01 -1.197230190827E+01  2.326342384196E+01 -2.399690058511E+01       43
 O   1.347082612024E+01  2.289367840209E+01  1.360868403920E+01  0.000000000000E+00  6.263184243179E+01  1.021731739817E+02 -2.594872306540E+01  6.073477654301E+01 -2.568585878322E+01  1.064428599675E+02       44
 O   1.090435606537E+01  2.272200298293E+01  1.389218362761E+01  0.000000000000E+00 -8.569139179382E+00 -2.973746067630E+01  9.281009151778E+00 -1.818141933368E+01  7.284918710390E+00 -1.785598386808E+01       46
 O   8.293088070103E+00  2.149705416928E+01  1.418102924532E+01  0.000000000000E+00  6.383149510375E+00  1.808366222188E+00  1.004597200487E+01  1.192930625804E+00  5.874900132066E+00  1.654617792976E+01       47
 O   1.667499809309E+01  1.567060708431E+01  1.094439565727E+01  0.000000000000E+00  7.076807100917E+00  4.826069193859E+00 -6.851753202545E+00  3.370540173893E+00 -1.043940434581E+01  6.650547296668E+00       48
 Ca  6.551932787145E+00  2.086131341196E+01  1.315165158517E+01  0.000000000000E+00 -6.313985120268E+00 -9.566791680983E+00 -6.722060009244E+00 -6.031217138232E+00 -3.348817833752E+00 -2.010368951445E+01       49
 Si  2.038863656688E+01  2.002411410609E+01  2.327791967665E+01  0.000000000000E+00 -6.001248088609E+01  4.048397547969E+01  3.184872962458E+01  4.706239309339E+01  2.789562737788E+01 -5.893953531964E+01       51
 Si  1.953899554344E+01  2.236625670598E+01  2.152943395328E+01  0.000000000000E+00 -3.448472580035E+00  8.269308054939E+01 -1.844431209208E+01  7.959915865608E+01 -1.673909925133E+01 -3.947461004180E+00       52
 O   1.959637047923E+01  2.087937708534E+01  2.206836436909E+01  0.000000000000E+00 -1.220571634437E+01 -2.772036233791E+01  1.743787137675E+01 -2.929891318192E+01  1.548456342993E+01 -1.300484466861E+01       54
 O   1.948365538678E+01  1.868583618157E+01  2.369155902280E+01  0.000000000000E+00  8.232237204560E+00  4.938227470035E+00 -1.273738517675E+00  6.261122405093E+00 -1.047507355146E+00  7.895142505785E+00       55
 O   2.185706841100E+01  1.958743348825E+01  2.293423191250E+01  0.000000000000E+00  4.855948976074E+01 -3.091565416183E+00 -2.410881618206E+01 -3.619804415416E+00 -2.297648539571E+01  4.351707914467E+01       56
 O   2.048552951148E+01  2.109162010591E+01  2.456113000023E+01  0.000000000000E+00  4.247273497798E+00 -2.372253636801E+01 -7.919889780475E+00 -2.762482430198E+01 -6.605686946166E+00  4.372934517081E+00       57
 O   1.667868806647E+01  2.196236410890E+01  1.873806399540E+01  0.000000000000E+00 -1.654597145359E+01  1.081519788441E+01 -2.857293084757E+01  9.227416004763E+00 -2.543267014503E+01 -2.178760392610E+01       58
 O   1.523129699319E+01  1.194256191567E+01  1.160432255777E+01  0.000000000000E+00  6.505047858631E+01  2.580001498482E+01  2.351316941239E+00  2.506930238197E+01  3.086229849164E+00  5.100480730619E+01       59
 H   4.254831643822E+00  5.152439085867E+00  1.701909527534E+01  0.000000000000E+00 -2.061758302595E+00 -2.676905941629E-01 -6.513884821196E+00 -8.842126322014E-01 -1.628493337222E+00 -2.496710787446E+00       70
 H   1.370180713604E+01  1.913478308055E+01  1.812324406977E+01  0.000000000000E+00 -3.195999083269E+00 -8.454762196672E+00 -9.232920512034E+00 -8.007810603191E+00 -6.980411215079E+00 -4.463261566654E+00       73
 H   1.551571810286E+01  1.012603660937E+01  1.616920032969E+01  0.000000000000E+00 -6.239687268222E+00  1.143513998676E+00 -5.300114095230E+00  1.825956950154E+00 -5.085908674379E+00 -4.072212532490E+00       83
 Si  2.278113480401E+00  2.133834623237E+01  2.084931246206E+01  0.000000000000E+00  2.518424751168E+00 -3.641312856912E+01  4.018846889854E+01 -3.557860984123E+01  3.927277409068E+00 -4.813436930862E+01       89
 Si  2.053503496123E+00  2.126790983844E+01  1.763606870488E+01  0.000000000000E+00  2.568835867757E+00 -6.528473749250E+01  1.016583922130E+01 -5.413630791856E+01  2.526864158861E+00  5.336427500964E+01       90
 O   1.642614711166E+00  2.122422269208E+01  1.932935806604E+01  0.000000000000E+00  2.209246398096E+01 -5.457366626355E+00 -4.080499985040E+01 -4.970141670152E+00 -3.583107254392E+00 -2.184993294942E+01       92
 O   2.103581180453E+00  1.981168612456E+01  2.171858871362E+01  0.000000000000E+00  1.343063118049E+00  5.270654449308E+01 -4.567436877051E+01  5.777962335787E+01 -6.497060198894E+00 -1.324985545110E+00       95
 O   1.298410485058E+00  1.997774221803E+01  1.663065700127E+01  0.000000000000E+00  4.257386465026E+01  4.612800336778E+01  2.754784168560E+01  3.839968469865E+01 -5.996780210563E+00  1.489663674359E+01       96
 O   3.611631997556E+00  2.066175560807E+01  1.765795728897E+01  0.000000000000E+00 -2.863438638838E+00  1.335171137455E+01 -3.925365743503E+00  1.141064455793E+01 -6.770329527933E-01 -1.554898577484E+01       97
 O   1.118399979517E+01  1.548736708419E+01  2.082550684558E+01  0.000000000000E+00  3.937606512435E+01 -3.021626635455E+01  2.572674297854E+01 -4.063111944038E+01  1.381612895839E+01  5.452714467813E+01       98
 O   3.484200322589E+00  1.255438007003E+01  2.006088862023E+01  0.000000000000E+00  7.108305747643E-01 -5.335928153786E+00 -1.178920747579E+01 -8.526383603295E+00 -2.045809189546E+00  2.643072383760E+00      101
 Ca  2.162312360479E+01  2.324545461713E+01  1.879082125501E+01  0.000000000000E+00  4.490899142205E+00  4.723447657818E+00  1.066900149921E+01  3.818271662454E+00  1.227711844130E+01  4.827840515008E+00      102
 O   1.727495397723E+01  4.010102374694E+00  1.062792602764E+01  0.000000000000E+00 -3.666199056385E+01 -1.460639696035E+00  1.320990242173E+01 -3.836015491908E+00  2.147177688156E+01 -8.509009058889E+00      105
 Si  5.329016888141E+00  1.606472142571E+01  1.940870796031E+01  0.000000000000E+00 -1.879252387755E+01  6.668779971081E+01 -9.205478982900E+00  8.056934165268E+01 -2.527533160044E+00 -5.665147386766E+01      107
 Si  7.921621225447E+00  1.695573614251E+01  2.051333922155E+01  0.000000000000E+00  3.047824003535E+01  5.132527522907E+01  4.735023703110E+01  6.209419470582E+01  1.828520645247E+01  6.523677179455E+01      108
 Si  7.385958885495E+00  1.968188031785E+01  1.953011037335E+01  0.000000000000E+00 -1.884331652590E+01 -5.149875941325E+00 -3.285251708320E+01 -5.110164472038E+00 -1.242426877385E+01 -5.021310115637E+01      109
 O   6.827059444158E+00  1.636374667146E+01  1.965990226878E+01  0.000000000000E+00 -4.009814027779E+00 -1.781234047281E+01 -6.417064633466E+01 -2.140028686000E+01 -2.228377390220E+01 -9.611104383512E+00      110
 O   4.618776257617E+00  1.684132190847E+01  1.810667783328E+01  0.000000000000E+00  3.206215630993E+00 -7.394240921938E+00  5.659767897924E+00 -7.949799838919E+00  1.443732628993E+00  1.169073939455E+01      111
 O   4.556146650237E+00  1.671905772339E+01  2.074292239885E+01  0.000000000000E+00 -1.758155168789E-01  2.235088107745E+00 -8.608316949743E+00  2.773018667713E+00 -1.890801772315E+00 -6.451657510222E-01      112
 O   5.176433155740E+00  1.453987419244E+01  1.949795945440E+01  0.000000000000E+00  1.299476875530E+00 -4.958346124586E+01 -2.497318606846E+01 -6.649138116225E+01 -6.630028576661E+00  3.650048154342E+00      113
 O   7.523327600701E+00  1.647897597751E+01  2.198776906583E+01  0.000000000000E+00  4.658799537159E+00 -6.628623753314E+00  5.923828448372E+01 -8.844520952699E+00  2.026895131290E+01  1.020455970171E+01      114
 O   1.287142593825E+01  1.355079361412E+01  3.647261967244E+01  0.000000000000E+00 -6.011901197788E+00  1.422922756946E+01 -2.470648709059E+01  3.829865763971E+01 -8.719080823834E+00 -6.329215795554E+00      115
 O   7.915246532691E+00  1.863426453351E+01  2.061858301542E+01  0.000000000000E+00  2.587214836818E-01 -5.272770330393E+00 -3.769844973075E+00 -5.834255094046E+00 -1.447201892080E+00  6.090883647800E-01      117
 O   5.751637389336E+00  1.992066805547E+01  1.988548240754E+01  0.000000000000E+00  4.515148290667E+00  6.572130506382E+00 -9.397490477051E+00  6.560522227508E+00 -2.718111458702E+00  1.563811558885E+01      118
 O   6.562633963854E+00  9.985815382052E+00  2.152981242790E+01  0.000000000000E+00  3.055008185063E+00  1.768618280793E+00  9.452098625882E+00  3.813210878150E+00  2.881152062036E+00  4.648552379231E+00      119
 Ca  2.339996816029E+01  1.922450060005E+01  2.067354119990E+01  0.000000000000E+00 -9.734604536022E+00 -3.507326154584E+00 -2.806843156719E+00 -3.771689744601E+00 -3.177009679332E+00 -7.997571170272E+00      120
 Ca  3.139576591386E+00  1.235407504815E+01  1.783876358135E+01  0.000000000000E+00 -1.390093685914E+00 -1.468655432761E+00 -1.298025540199E+00 -2.120676533481E+00 -2.284491625469E-01 -5.469948325791E+00      121
 Si  1.089806570744E+00  1.708922298895E+01  1.386592615933E+01  0.000000000000E+00 -2.353657925125E+02  1.376141086163E+01  1.760337202881E+01  1.116579185483E+01 -1.348755693475E+02 -5.752219719913E+01      125
 Si  2.133215189400E+00  1.947192878583E+01  1.527247487079E+01  0.000000000000E+00 -4.800367501200E-01  6.530201605451E+00  7.596909919315E+00  5.121852129669E+00 -1.427332868597E+00  3.562135872564E+00      126
 Si  3.264000137963E+00  2.101326755812E+01  1.304860323578E+01  0.000000000000E+00 -6.569416478271E+00  5.440789807797E+01 -2.352599791775E+01  3.378565817755E+01 -6.173616068430E+00 -3.762475341965E+01      127
 O   8.804248885001E-01  1.860228739292E+01  1.474421545045E+01  0.000000000000E+00  3.165912487641E+01 -2.647704308763E+01 -1.300661089489E+01 -2.098576478952E+01  2.032148876307E+01 -5.484887611583E+00      128
 O   2.502380679059E+00  1.705489737832E+01  1.326597181975E+01  0.000000000000E+00  1.853535800013E+01 -3.088402416943E+00 -2.197354769942E+01 -2.402281205356E+00 -2.448337786637E+00  2.557641601664E+01      129
 O   8.197995272434E-01  1.576782044153E+01  1.496816024493E+01  0.000000000000E+00  2.156941629802E+01  1.863230274037E+01  3.615299016937E+00  1.768737119909E+01  2.339835165365E+01  1.654732644831E+01      131
 O   3.401499837178E+00  1.851785010296E+01  1.540155109935E+01  0.000000000000E+00  2.058597119082E+00 -1.457896905133E+01  1.574896586947E+01 -1.212552945248E+01  3.386036801479E+00  1.465407504400E+01      132
 O   2.726536747005E+00  4.974945213568E+00  9.835281923115E+00  0.000000000000E+00 -1.965628480919E+00 -1.833413845619E+01 -2.702230452797E+01 -3.624591081773E+01 -7.975065247045E+00 -6.943242678965E+00      133
 O   2.730026364112E+00  2.082986115152E+01  1.456692754587E+01  0.000000000000E+00 -2.469482754588E-01 -2.290863472933E+01  7.856525315667E+00 -1.602067435061E+01  1.035160433723E+00 -9.347130748141E+00      134
 O   1.709468863464E+00  2.126176527393E+01  1.230171832869E+01  0.000000000000E+00  1.490405409668E+01 -2.436489575354E+01  5.068738111122E-01 -1.409714013894E+01  7.204251167884E+00  6.783172998216E+01      135
 O   8.323986014191E+00  1.477046270635E+01  1.287224476678E+01  0.000000000000E+00  1.116968288400E+01 -6.309566028348E-01  1.193228607270E+01 -5.498695599709E-01  7.716150849056E+00  1.981999779896E+01      136
 Si  8.448659466143E+00  1.420997620464E+01  2.531738896439E+01  0.000000000000E+00  1.277957881797E+01 -6.079626631553E-01  3.368017759637E+01 -1.083184587874E+00  1.123940354478E+01  2.149423960528E+01      139
 Si  8.090463656295E+00  1.652041914787E+01  2.356071974662E+01  0.000000000000E+00 -3.495406425349E+01  6.280957482602E+00 -6.238055937863E+00  8.957634649789E+00 -2.142072287857E+00 -7.137487008424E+01      140
 O   7.631800755019E+00  1.503769038741E+01  2.421663577545E+01  0.000000000000E+00 -4.222134213866E+00 -8.335521901040E+00 -9.763949086567E+00 -1.342349075392E+01 -3.077079520946E+00 -8.319287822138E+00      142
 O   7.722002676448E+00  1.279405275787E+01  2.568770112183E+01  0.000000000000E+00  1.491789828046E+00 -5.354643645525E+00 -3.044694907522E+01 -1.075097064107E+01 -9.152684435769E+00  2.471643505369E+00      143
 O   7.261089686705E+00  1.772121699310E+01  2.450200012290E+01  0.000000000000E+00  2.016023797238E+00 -5.375205709987E+00 -2.843296588139E+01 -7.431955210413E+00 -8.426018867368E+00  4.920252567533E+00      148
 O   1.235390311455E+01  1.575815183710E+01  1.328704414322E+00  0.000000000000E+00  4.874854267821E+00 -1.526375781190E+01  5.695364346387E+01 -2.229207202312E+01  1.631812142890E+01  6.218171943212E+00      150
 Ca  4.666833904617E+00  1.160823596759E+01  7.432105327725E+00  0.000000000000E+00  8.161472807071E+00  1.687083882571E+00  7.117603340623E-01  1.080145609289E+00  4.469349010128E-01  2.030076581337E+01      151
 Ca  1.166174965124E+01  2.180407111449E+01  1.302222026235E+00  0.000000000000E+00  1.646168436730E+01 -2.079613765026E+00 -8.440234918469E+01  1.874633167162E+01  1.365874450169E+01  3.077854930376E+01      152
 H   6.616306355545E+00  1.858669982865E+01  1.483502962792E+01  0.000000000000E+00 -5.016891576540E-01  3.885981878353E+01  1.067971148030E+01  3.101607968621E+01  4.763067193982E+00 -1.409358224894E+00      155
 H   1.273781780770E+01  1.447330352191E+01  3.614917171119E+01  0.000000000000E+00  8.554915638604E+00 -5.456115864922E+00  2.538703368459E+01 -1.362743958065E+01  8.945582829278E+00  9.720494711979E+00      156
 H   1.464674426526E+01  1.173047060284E+01  1.095570844148E+01  0.000000000000E+00 -3.910168895166E+01 -1.153298423670E+01 -3.622145010479E+01 -1.077126545348E+01 -4.842464724536E+01 -3.131625735125E+01      159
 H   1.677771628234E+01  2.994690370119E+00  1.075575573879E+01  0.000000000000E+00  1.072308998610E+01  8.644136281236E+00 -3.479438961489E+00  2.892007317187E+01 -5.427516311761E+00  2.176358704419E+00      160
 H   1.538617663374E+01  1.654460132775E+01  1.541635901658E+01  0.000000000000E+00  1.855615225988E+01  2.484063431858E+00  3.638022758335E+00  2.314665244985E+00  3.630900181886E+00  1.995324430655E+01      164
 H   2.009359299442E+01  7.022742969582E+00  7.253067854433E+00  0.000000000000E+00  1.702708573478E+01 -5.871196641639E+00 -1.091354381729E+01 -6.063754264249E+00 -3.023442107430E+01  5.950993765505E+00      168
 H   5.386107616823E+00  2.119351834972E+01  3.286333662705E+01  0.000000000000E+00 -1.199213311352E+01  5.104933243913E+01 -3.471682494115E+01  7.915870167707E+01 -5.689883451869E+00 -4.718722893687E+01      169
 Si  1.169540782790E+01  4.929648370133E-01  1.936007116506E+01  0.000000000000E+00 -1.026007484421E+01 -2.145624868906E+02  2.655150647719E+01 -2.724625890608E+01  1.603974975341E+01 -7.036221098588E+01      177
 Si  1.050599064349E+01  3.324012157125E+00  1.866919500905E+01  0.000000000000E+00 -2.943105118781E+01 -1.139843159226E+01 -5.394665846718E+01 -5.625909141740E+01 -3.035819642086E+01 -9.151081710733E+00      178
 Si  7.976718011546E+00  4.112373190163E+00  2.044071379917E+01  0.000000000000E+00 -5.971452929434E+00 -8.411778146504E+00 -7.383517195193E+01 -4.181107639893E+01 -2.881319858891E+01 -3.078564755301E+00      179
 O   1.061006065693E+01  1.511052061246E+00  1.864220534337E+01  0.000000000000E+00  4.307682111466E+00  1.608743177334E+01  6.061193363969E+00  1.495268183577E+01  3.449679265977E+00 -2.455079087598E-01      180
 O   1.210378498833E+01  6.750705336764E-01  2.106160885723E+01  0.000000000000E+00 -5.472965115215E+00  7.180251215389E+00 -2.384646155836E+01  1.053249478393E+01 -1.370419730950E+01  5.279184837782E+00      182
 O   1.056408070341E+01  3.585139469259E+00  1.685849492935E+01  0.000000000000E+00  2.742942504026E+00  3.040769970180E+00  3.322355913893E+01  1.471599119143E+01  2.081896168483E+01  8.332175494736E-01      184
 O   1.168128485299E+01  3.773611393426E+00  1.954157627224E+01  0.000000000000E+00  2.515670502235E+01  5.358876687587E+00  2.578843424282E+01  2.765135700463E+01  1.541544254702E+01  8.127105247115E+00      185
 O   8.958268120907E+00  3.371196427316E+00  1.927557433398E+01  0.000000000000E+00  8.693492532062E+00  2.480948934377E+00 -1.104762119203E+01  1.400401375514E+01 -5.134350397119E+00  3.273078665185E+00      187
 O   6.545540019597E+00  4.069928790300E+00  1.968152365776E+01  0.000000000000E+00  2.390893686609E+00  6.813730282825E-01  3.696863005552E+00  3.414558492920E+00  1.229476191508E+00  1.474245403189E+00      188
 Ca  1.254147898757E+01  3.049211317284E+00  2.166341722378E+01  0.000000000000E+00  8.422325937039E+00 -1.184126407029E+00 -6.736546009708E+00 -2.269634319760E+00 -3.899950287475E+00  1.917082147471E+00      190
 O   1.341344262572E+01  1.767411711362E+01  7.454650306815E+00  0.000000000000E+00 -4.404714932002E+00  1.070464099039E+01 -3.082563300397E+00  4.515040538116E+00 -5.546576199855E+00 -5.803837965582E+00      193
 O   4.805461670577E+00  1.163811832007E+01  1.297551132138E+01  0.000000000000E+00  1.675852031978E+00 -1.219883573874E+01 -3.194440508046E+01 -1.360066351643E+01 -1.183056377521E+01  4.058666070423E+00      194
 Si  1.875149273727E+01  1.677497380738E+00  1.993434058529E+01  0.000000000000E+00  2.276474426376E+01  1.376574743753E+00  2.015673388515E-01 -4.399334977683E+01  1.896068984261E-01  9.384990254972E-02      196
 Si  1.613587539163E+01  3.717504520606E+00  1.960290097556E+01  0.000000000000E+00  1.027941519012E+01 -2.732860506307E+00  2.529284522301E+01 -1.803741958511E+01  2.081947969471E+01  2.216053912318E+00      197
 O   2.028166105276E+01  1.967235363923E+00  2.026564611249E+01  0.000000000000E+00  3.111964943976E+01  4.656166067788E+00  7.527825380400E+00  1.696870578115E+01  7.533774249395E+00  6.212716174449E+00      202
 O   1.754987511318E+01  2.672284276696E+00  2.005781629223E+01  0.000000000000E+00 -3.111462803703E+01  1.044083045387E+01 -3.416307797602E+01  3.222637986641E+01 -2.989147687992E+01 -6.106789001624E+00      205
 O   1.607033347765E+01  4.550671100630E+00  2.096767049861E+01  0.000000000000E+00 -7.717117853974E+00  3.881886018798E+00  7.430949957517E-01  1.790455244306E+01  5.695331957879E-01 -2.183081390607E+00      206
 Ca  1.313057626422E+01  5.409661403346E+00  1.903482495387E+01  0.000000000000E+00  2.589250247357E+00  2.106922489788E+00  4.267537607743E+00  7.413569499874E+00  2.943826809791E+00  1.066744280287E+00      209
 O   2.223526812641E+01  1.916943339410E+01  1.493831464093E+01  0.000000000000E+00  3.885200114191E+01  2.011484009256E+01  5.132006302918E+01  1.567504913041E+01  7.638849422755E+01  3.349502438573E+01      210
 O   1.358601869405E+01  1.723181561377E+01  3.836004414962E+00  0.000000000000E+00  6.631477339162E+00 -1.795792499777E+01 -4.131129292631E-01 -3.698724888788E+00 -6.438368070805E+00  8.411028817837E+00      212
 Si  1.430711701259E+01  3.575312449292E+00  1.468091006725E+01  0.000000000000E+00 -1.465715247949E+01  1.974568942620E+00  2.467259315207E+01  1.411518375717E+01  2.404440021863E+01 -4.298007816312E+00      213
 Si  1.141401570345E+01  4.670652569511E+00  1.589974203620E+01  0.000000000000E+00  6.496897857494E-01 -1.814566939278E+00 -1.830166387035E+01 -5.413552398128E+00 -1.313829358614E+01  2.893413334853E-01      214
 Si  1.027311563393E+01  6.382568780919E+00  1.324932242094E+01  0.000000000000E+00  1.225646947167E+01 -2.405065859919E+00  2.722666034601E+01 -4.992581218541E+00  2.111071201786E+01  7.614803746182E+00      215
 O   1.249866464080E+01  3.916046091546E+00  1.491599974588E+01  0.000000000000E+00  1.896829596897E+01 -3.387293675813E+00  3.720304943312E+00 -1.381091973296E+01  3.117380305722E+00  5.926089130873E+00      216
 O   1.488986010233E+01  4.023350085953E+00  1.615141684784E+01  0.000000000000E+00 -3.991800655490E+00 -2.635096195746E+00  1.162153615137E+01 -1.316516859857E+01  1.071379985411E+01 -9.843457650374E-01      217
 O   1.470561878052E+01  4.752545221522E+00  1.370074539226E+01  0.000000000000E+00  8.028458002838E+00  5.555788391240E+00 -1.406858243686E+01  1.601635306003E+01 -1.510043462421E+01  2.594627964117E+00      218
 O   1.500213384056E+01  2.211549966782E+00  1.421222580051E+01  0.000000000000E+00 -1.672953292618E+01  4.621415361238E+00  7.566029244174E+00 -5.892734013071E-01  7.986545172861E+00 -2.392994109183E+00      219
 O   1.206781686132E+01  5.858704480061E+00  1.696751930320E+01  0.000000000000E+00 -3.067198614841E+00 -6.222406718885E+00 -8.103569537723E+00 -1.802084513297E+01 -5.763505634306E+00 -1.489068857484E+00      220
 O   1.048687236946E+01  5.421885557666E+00  1.473175271743E+01  0.000000000000E+00 -5.082741639449E+00  1.253974898337E+00 -1.272285643258E+00  3.407163046819E+00 -9.056829431139E-01 -2.627861054982E+00      222
 O   1.164195775386E+01  6.629815203996E+00  1.246846438268E+01  0.000000000000E+00 -3.646477634383E+00  1.445213137953E+00  8.354971991681E+00  2.717962413957E+00  7.801139577133E+00 -2.076581394006E+00      223
 O   2.146613642470E+01  2.154030035065E+01  1.239784312704E+01  0.000000000000E+00 -2.494561138102E+01  1.120432544237E+01  5.973319755311E+00  6.448817654237E+00  1.034245194603E+01 -2.503179663758E+01      224
 Ca  1.579488268710E+01  7.385024176751E+00  6.056964752625E+00  0.000000000000E+00 -6.525238917873E+00 -1.690975771901E+00  3.062281371339E+00 -1.386885188568E+00  7.985579740120E+00 -3.050927830375E+00      225
 Ca  1.671981788285E+01  5.164829426708E+00  1.576436585857E+01  0.000000000000E+00  5.616991709337E+00 -3.682306961761E+00 -1.044144408287E-01 -1.123933229016E+01 -1.107428266165E-01  1.735114836371E+00      226
 Si  2.202356979641E+01  2.386454019715E+00  2.026357637382E+01  0.000000000000E+00 -7.486858942691E+01 -7.785829434735E+00  6.728993166103E+01 -5.373074718404E+01  7.313440032465E+01 -6.074113175983E+00      228
 Si  2.287717639730E+01  5.159705532500E+00  2.144315298164E+01  0.000000000000E+00  2.567641999734E+01 -1.617685919966E+01 -4.040255948232E+00 -6.722919833232E+01 -4.310450431291E+00  5.791045363916E+00      229
 O   2.257013060399E+01  7.392012496426E-01  2.057048010837E+01  0.000000000000E+00  6.664987006389E+00  3.093656675683E+01 -3.093709115612E+01  6.122707250279E+01 -3.394447695059E+01 -1.185691908259E+00      230
 O   2.197751648755E+01  3.526882547493E+00  2.159759315678E+01  0.000000000000E+00  2.419852639837E+01  3.226156245662E+00 -1.517754844437E+01  2.369493644621E+01 -1.544453674792E+01  3.880166202822E+00      236
 O   2.336043984233E+01  5.329183480747E+00  2.298313762108E+01  0.000000000000E+00 -6.207347617099E+00 -1.731900709675E+00  5.063155683116E+01 -7.469157798808E+00  5.146274877600E+01 -1.416073267608E+00      237
 H   1.361224905841E+01  1.624823622870E+01  3.631630862819E+00  0.000000000000E+00 -4.052108889255E+00  1.409410754947E+01  1.909763360300E+00  3.077260367285E+00  6.070596361710E+00 -4.836792375348E+00      243
 H   1.878818445109E+01  1.921125085703E+01  7.957610160563E+00  0.000000000000E+00 -1.588464046413E+01 -2.035300074804E+01  2.060580423668E+00 -8.430541392432E+00  4.865099482763E+00 -1.624232578323E+01      247
 H   1.470902583491E+01  8.204148770656E+00  9.085132187771E+00  0.000000000000E+00 -1.362128383845E+01 -4.516706931283E+00  1.191254791345E+01 -5.001722990556E+00  1.928667314873E+01 -7.597446650252E+00      248
 H   5.972429059522E+00  1.091294903557E+01  9.938336472769E+00  0.000000000000E+00  4.284428105686E+00  1.573980712326E+01 -6.950783750173E+00  1.433411800033E+01 -4.177063532688E+00  7.828597895085E+00      249