     8448
Lattice="     49.70      0.00      0.00      0.00     49.70      0.00      0.00      0.00     49.70" pbc="T T T" config_type=md Properties=species:S:1:pos:R:3:charge:R:1:forces:R:3:id:I:1
 Si  1.076900757120E+01  1.780696970067E+01  1.568735977723E+01  0.000000000000E+00  3.082768296372E+01  2.434886279756E+01  1.717937987758E+01  2.145055432185E+01  1.179324466305E+01  5.097476372333E+01        1
 Si  1.266752854351E+01  2.019246403501E+01  1.700133623890E+01  0.000000000000E+00 -2.671694381249E+01  1.356350919213E+01 -4.288941401286E+01  1.141999212949E+01 -3.195648086645E+01 -4.258770171354E+01        2
 Si  1.085840728032E+01  2.262329068761E+01  1.791069526236E+01  0.000000000000E+00  7.686088845007E+00  1.454570379003E+01  1.484311817774E+01  1.151572826239E+01  8.998680404246E+00  1.601382391565E+01        3
 O   1.159730359958E+01  1.900309010271E+01  1.665612297514E+01  0.000000000000E+00 -3.350162870772E+01 -2.017210320033E+01 -4.000877298821E+01 -1.768075769550E+01 -2.785725631851E+01 -5.489504206334E+01        4
 O   9.466761695142E+00  1.828927384570E+01  1.492589504588E+01  0.000000000000E+00 -5.871524081622E+00  2.614674052229E+00  7.910358300036E+00  2.133838161755E+00  5.017151515499E+00 -1.134346836633E+01        5
 O   1.179910648962E+01  1.721459300401E+01  1.458814606482E+01  0.000000000000E+00  7.642234291867E+00 -5.687093924523E-01 -8.963675592505E+00 -4.819408558539E-01 -7.249952282109E+00  1.114982334396E+01        6
 O   1.029094841068E+01  1.675453982211E+01  1.676483765339E+01  0.000000000000E+00 -3.291185659216E-01 -2.267074062983E+01  4.988468755545E+01 -2.268467473153E+01  3.062127750534E+01 -5.358330349033E-01        7
 O   1.360756089724E+01  2.062561842317E+01  1.569179724220E+01  0.000000000000E+00 -3.915578929151E-02  1.752770117053E+01 -1.180559349016E+01  1.333492781874E+01 -1.023753556498E+01 -5.935026674389E-02        8
 O   1.349911750661E+01  1.920531455788E+01  1.785735919559E+01  0.000000000000E+00  4.196177187465E+01 -1.249337419983E+01  4.552354360893E+01 -1.161650698190E+01  3.441313229821E+01  5.969938611646E+01        9
 O   1.176965442137E+01  2.137915936804E+01  1.758614176915E+01  0.000000000000E+00  1.814712314160E+01 -3.546782922914E+01 -1.676762770789E+00 -2.917524783504E+01 -1.122185787984E+00  3.296360486263E+01       11
 O   1.999408498569E+01  1.763906527155E+01  2.151354045386E+01  0.000000000000E+00 -9.636123932943E+00 -3.373830633579E+01 -8.258220807079E+00 -4.114902955605E+01 -7.674960288450E+00 -8.501125164742E+00       13
 Ca  3.259784762321E+00  1.554372591640E+01  1.722070230064E+01  0.000000000000E+00  1.023515617309E+00  5.113042208743E+00 -1.306562933144E+01  5.664676423203E+00 -2.473252174110E+00  4.880459105918E+00       14
 Ca  2.151653766709E+01  1.313301788726E+01  1.771769871875E+01  0.000000000000E+00  1.399525507439E+01  2.370690826464E+01  7.326684767033E+00  3.198288937025E+01  8.897593940795E+00  8.542263540378E+00       15
 O   6.197414928921E+00  4.489311494589E+00  1.621892863749E+01  0.000000000000E+00  1.347808133822E+01 -1.439690709406E+00 -3.722456538520E+01 -5.201296658530E+00 -1.422387892549E+01  9.763313602635E+00       16
 O   9.697457509298E+00  1.610156839809E+01  2.032976154186E+01  0.000000000000E+00  9.846113335870E-01  7.524603580642E+00 -1.029607917367E+00  9.500527694534E+00 -4.911311433411E-01  1.634839515211E+00       18
 Si  2.038955013546E+01  1.975575516358E+01  1.808978276629E+01  0.000000000000E+00  4.780601702040E+01  1.748220038757E+01 -3.586403204299E+01  1.600795336190E+01 -4.042345277707E+01  4.632000026122E+01       19
 Si  1.813390713053E+01  2.174864770138E+01  1.857130789665E+01  0.000000000000E+00 -9.339388174763E+00  1.531223320154E+01  1.919343226733E+00  1.307521282590E+01  1.874137891573E+00 -1.120106448640E+01       20
 O   1.910770842197E+01  2.048784800444E+01  1.869827592332E+01  0.000000000000E+00 -3.418976406723E+00 -2.176476317152E+01  9.645489290184E+00 -1.986365513346E+01  9.856694686709E+00 -3.665927248040E+00       22
 O   2.155281388482E+01  2.093310202580E+01  1.790942454644E+01  0.000000000000E+00  2.491020082549E+00  1.813004475792E+01 -1.394656280041E+00  1.551125429071E+01 -1.678377055559E+00  2.419395342761E+00       23
 O   2.041652390038E+01  1.936387386363E+01  1.645961279484E+01  0.000000000000E+00 -1.838952934371E+01 -1.319336989232E+01  9.811887036690E+00 -1.121458244441E+01  1.217067671575E+01 -1.744138857137E+01       24
 O   2.110476412863E+01  1.881016831492E+01  1.917794691519E+01  0.000000000000E+00 -1.641295808210E+01 -3.411921133927E+01  2.369872356212E+01 -3.478631413063E+01  2.607974530015E+01 -1.462847450881E+01       25
 O   1.835980729530E+01  2.261308134766E+01  2.006143952363E+01  0.000000000000E+00 -1.687660488110E+01 -7.719093009663E+00 -2.313660822220E+01 -6.848076792804E+00 -2.117413697686E+01 -2.078627694237E+01       26
 O   2.242766794412E+01  1.707216349728E+01  2.054640296492E+01  0.000000000000E+00 -2.791673992729E+01  1.801235167287E+01  5.907722999488E-01  2.167792241889E+01  6.448644561510E-01 -2.125049958547E+01       27
 O   1.856239497551E+01  2.239666836939E+01  1.703956073265E+01  0.000000000000E+00 -1.665412744862E+00 -1.122895795875E+01  1.207583709265E+01 -8.543079173509E+00  1.315506081939E+01 -2.009422652305E+00       29
 Ca  4.707778493400E+00  1.121994909944E+01  1.451848966518E+01  0.000000000000E+00  3.469995238020E-01 -7.071640167552E+00  1.832661183156E+00 -9.150623926943E+00  5.942603605970E-01  8.269966397203E-01       32
 Si  1.305629811680E+01  1.878892947937E+01  1.199192993291E+01  0.000000000000E+00 -4.550113219723E+01 -1.106546075316E+01  1.596155144381E+01 -7.062468895476E+00  1.737825147603E+01 -6.547932319232E+01       37
 Si  1.291504317004E+01  2.123099834597E+01  1.423750027335E+01  0.000000000000E+00 -3.029402689188E+01 -8.911387900425E+00 -2.351167369485E+01 -5.975973696605E+00 -2.132778050494E+01 -4.980025435193E+01       38
 O   1.251782586530E+01  1.989977254383E+01  1.329300928047E+01  0.000000000000E+00  1.322681200889E+01 -2.540698889655E+01 -1.555501185889E+01 -1.697181907214E+01 -1.464791949468E+01  2.102685828108E+01       40
 O   1.382687923820E+01  1.753881855727E+01  1.258457035817E+01  0.000000000000E+00 -1.984731026995E+01  1.468606927670E+01  3.693906772319E-01  1.053764662050E+01  4.058557535487E-01 -2.517548375723E+01       41
 O   1.352868583358E+01  1.930172186251E+01  1.049424146533E+01  0.000000000000E+00 -5.665953886892E+00  7.584396436264E+00  1.451140314282E+00  4.123595197253E+00  1.870742299690E+00 -8.083761228246E+00       42
 O   1.129904666061E+01  1.840660546838E+01  1.141311254297E+01  0.000000000000E+00  3.522783629825E+01  4.061829234017E+00  1.063776966005E+01  2.518558582558E+00  1.053145277427E+01  5.738757469754E+01       43
 O   1.353703310854E+01  2.218058963722E+01  1.292703494070E+01  0.000000000000E+00 -2.061017304904E+01  1.534511721775E+01  3.633990409466E+01  8.943263893673E+00  3.805470373891E+01 -3.377001349463E+01       44
 O   1.138509411400E+01  2.176117169725E+01  1.473164061658E+01  0.000000000000E+00  4.920546585796E+00  1.368456770351E+01  2.245834700879E+00  9.264029354944E+00  1.735654575040E+00  9.405004299975E+00       46
 O   8.949309893207E+00  2.088818081703E+01  1.536539496699E+01  0.000000000000E+00 -8.737927774419E+00  1.197861987758E+01 -1.935028419663E+01  8.811500972282E+00 -1.127024005366E+01 -2.039480334196E+01       47
 O   1.665435267732E+01  1.535589092859E+01  1.008412931878E+01  0.000000000000E+00 -4.663555783269E+00  1.979190238592E+00 -3.555554387365E+00  1.299723370349E+00 -5.872143727899E+00 -4.299960216694E+00       48
 Ca  7.632045003186E+00  2.134853932941E+01  1.320202449483E+01  0.000000000000E+00  5.704730782897E-01 -2.706599062397E+00  6.119007046168E+00 -1.673771988242E+00  3.537376950744E+00  1.595740976783E+00       49
 Si  2.072778706932E+01  2.097486561217E+01  2.319476872967E+01  0.000000000000E+00  2.384998124884E+01 -4.094081017658E+01 -1.042014875274E+01 -4.527383589530E+01 -9.311867994667E+00  2.413427684654E+01       51
 Si  1.939898170380E+01  2.285349635018E+01  2.131599473672E+01  0.000000000000E+00  1.727175190663E+01 -1.293425991859E+01 -1.271293533740E+01 -1.206408910582E+01 -1.156962192279E+01  2.034745561320E+01       52
 O   1.947368536407E+01  2.140289311475E+01  2.223038901649E+01  0.000000000000E+00 -1.949478984904E+00  3.967925091860E+01  3.523536268506E+00  4.121336209428E+01  3.086596307913E+00 -2.142608836658E+00       54
 O   1.999077404691E+01  1.958701742119E+01  2.399624256823E+01  0.000000000000E+00  6.015928953374E+00  7.188123359608E+00 -1.238563766207E+01  8.806238746736E+00 -1.031821891387E+01  5.894424344844E+00       55
 O   2.188640948125E+01  2.021304404830E+01  2.217226336567E+01  0.000000000000E+00 -2.299832480165E+01  6.456721985917E+00  3.726454101523E+01  7.082562132086E+00  3.678411131689E+01 -2.123994585092E+01       56
 O   2.146292850991E+01  2.173686220305E+01  2.443583756961E+01  0.000000000000E+00 -9.908039928712E+00 -8.458323309329E-01 -2.145373775092E+01 -9.508557977105E-01 -1.884363645431E+01 -1.003449732096E+01       57
 O   1.661669266020E+01  2.128349306684E+01  1.844070685327E+01  0.000000000000E+00  1.393267887892E+00  1.313829101427E+01  6.193454259088E-01  1.138344032092E+01  5.580844961484E-01  1.784567364793E+00       58
 O   1.605819054756E+01  1.663422578258E+01  1.313509851034E+01  0.000000000000E+00  5.216450156822E+01  4.311914160486E+00  3.537942283693E+01  3.404872460335E+00  4.325277902797E+01  5.403573300189E+01       59
 H   3.526461031227E+00  8.475673973517E+00  1.591328746594E+01  0.000000000000E+00 -2.437756034994E+00 -1.564541896354E+01 -2.082255581207E+01 -2.937466097326E+01 -4.611254356460E+00 -6.023469122788E+00       70
 H   1.333368793842E+01  1.828689706488E+01  1.759292088806E+01  0.000000000000E+00  3.347477133636E+00 -6.188676296132E+00  9.126563859859E+00 -5.953819945141E+00  6.917029595697E+00  4.591000633325E+00       73
 H   1.878398181177E+01  1.058778994906E+01  1.872639684365E+01  0.000000000000E+00 -4.468328955859E+00 -9.035685490180E+00 -2.280353534712E+01 -1.598122299910E+01 -2.287365779870E+01 -2.518620859092E+00       83
 Si  2.084655844182E+00  2.046422031151E+01  2.131176615130E+01  0.000000000000E+00  1.077566335431E+01  2.376261202406E+01  3.550872310357E+01  2.474676400528E+01  7.144064109294E+00  1.700901988561E+01       89
 Si  2.998133457517E+00  2.036449408584E+01  1.849933536778E+01  0.000000000000E+00  7.604236831443E-01 -3.650786549131E+01 -8.851738143772E+00 -3.316415543832E+01 -1.836575735695E+00  1.161295744023E-02       90
 O   2.318590436650E+00  1.965364729524E+01  1.985315274053E+01  0.000000000000E+00  2.667499699150E+00  1.177513487775E+01 -1.195895207492E+00  1.189466503375E+01 -1.189879453725E+00 -5.308399274127E+00       92
 O   1.108206090204E+00  1.973884100456E+01  2.234020009905E+01  0.000000000000E+00  2.186910451012E+01  3.432941982540E+00 -3.698607151693E+00  3.885365447782E+00  2.092514744264E+00 -1.372177921927E+01       95
 O   2.271495628165E+00  1.987155226389E+01  1.719007728834E+01  0.000000000000E+00 -9.123585252550E-01 -3.044429140181E+01 -3.983491315829E+01 -2.633612690323E+01 -5.118246341409E+00 -1.072509959313E+01       96
 O   4.589562642142E+00  2.005727083304E+01  1.859042276366E+01  0.000000000000E+00 -3.583721386186E+00  5.161766698335E+00 -4.772658110590E+00  4.784271296340E+00 -1.178263326582E+00 -1.566155122775E+01       97
 O   1.175004155486E+01  1.429849433471E+01  2.110856293805E+01  0.000000000000E+00  9.616406594403E-01 -1.075427074665E+01  4.805176605940E+00 -1.587630107021E+01  2.674792451003E+00  1.170209778139E+00       98
 O   3.207740839895E+00  1.261891853131E+01  2.056550848594E+01  0.000000000000E+00  5.010462601432E+00 -6.146385576043E+00 -5.605112269897E+00 -1.001698714579E+01 -1.145943133160E+00  1.411694767628E+01      101
 Ca  2.177089200790E+01  2.307918651220E+01  1.857658794164E+01  0.000000000000E+00  1.075797571043E+01  1.094868872806E+00 -6.062162722782E+00  8.812671057314E-01 -7.104571107815E+00  1.140446279485E+01      102
 O   1.550532360773E+01  4.252431133221E+00  1.167318164446E+01  0.000000000000E+00  3.445864225147E+01  5.076077177294E+00  3.697597755111E+00  1.393414004261E+01  4.911467285477E+00  9.450496282815E+00      105
 Si  5.495787040931E+00  1.572782275714E+01  2.016194355578E+01  0.000000000000E+00  3.326024070859E+00 -1.491449376902E+01  1.870075804668E+01 -1.911931398117E+01  5.097493872264E+00  9.518403221024E+00      107
 Si  8.426749399169E+00  1.666514100607E+01  2.115106839336E+01  0.000000000000E+00  3.436261306254E+00 -2.356872957728E+01  7.041101528455E+00 -2.991296689612E+01  2.805229361039E+00  6.795714039871E+00      108
 Si  7.564705109421E+00  1.954857461213E+01  2.047510746414E+01  0.000000000000E+00 -2.008064684171E+01 -5.426643342528E+01 -2.857593543963E-01 -5.683846920423E+01 -1.055762589795E-01 -5.189204567354E+01      109
 O   7.023909769227E+00  1.609087892898E+01  2.055348994010E+01  0.000000000000E+00  1.802781692580E+00 -1.248088583865E+01 -2.965335970288E+00 -1.594230884842E+01 -1.013368160417E+00  4.129942283396E+00      110
 O   5.164677724806E+00  1.636875805546E+01  1.871987268525E+01  0.000000000000E+00 -6.169271415133E+00 -3.511147354375E+01  1.581148662731E+01 -4.015468444849E+01  4.362275008658E+00 -1.955268393374E+01      111
 O   4.534252766739E+00  1.621337426936E+01  2.137746670193E+01  0.000000000000E+00  1.567184819646E+00  8.027940648830E+00 -1.669736404624E+01  1.058490546473E+01 -3.541582834840E+00  5.603868010309E+00      112
 O   5.612882636314E+00  1.399146098625E+01  2.027423330107E+01  0.000000000000E+00 -4.662697438912E+00  8.867569058953E+00 -7.132747670884E+00  1.284949185015E+01 -1.974687523646E+00 -1.162289567310E+01      113
 O   8.735709980787E+00  1.627931030506E+01  2.273888779438E+01  0.000000000000E+00 -3.149952220906E+00 -2.219568878293E+01 -7.004852374190E+01 -3.100286604877E+01 -2.691088471542E+01 -5.870049459406E+00      114
 O   1.115150460062E+01  1.377791981811E+01  3.658946799414E+01  0.000000000000E+00 -2.243733866769E+01  9.267397205539E+00 -4.165265063989E+01  2.461105434765E+01 -1.269462910237E+01 -2.772180653345E+01      115
 O   7.947268192356E+00  1.815962895390E+01  2.133885240100E+01  0.000000000000E+00  4.624394573685E+00  4.438976200998E+01 -4.188242464834E+00  5.216111970412E+01 -1.559834872896E+00  1.056681208711E+01      117
 O   6.182337310784E+00  2.001558243113E+01  2.125879669344E+01  0.000000000000E+00 -1.223596459597E+00  5.317299281535E+00 -1.891952504146E+01  5.647569076407E+00 -5.502046388271E+00 -3.961446062927E+00      118
 O   6.361976450603E+00  9.583103301573E+00  2.252151308306E+01  0.000000000000E+00  4.699510301211E+00 -2.145558433375E+01 -4.960943403896E+01 -5.042335536527E+01 -1.401389195831E+01  7.078915339122E+00      119
 Ca  2.403905903395E+01  1.894501166939E+01  2.111334673546E+01  0.000000000000E+00 -7.793062564455E+00  1.548448565921E+01 -1.103364990859E+01  1.725674918804E+01 -1.256260150680E+01 -6.141657251035E+00      120
 Ca  3.275490571906E+00  1.175043164689E+01  1.840111531725E+01  0.000000000000E+00 -2.456837358224E+00  6.566984010736E+00 -1.898526012478E+00  1.028386306984E+01  1.426914935014E+00  7.213782748511E-01      121
 Si  7.829790862433E-01  1.710502946045E+01  1.442930447442E+01  0.000000000000E+00 -1.965621976255E+02  8.453094364664E+00  2.917542516141E-01  7.130784113570E+00 -1.324362800790E+02 -2.503099248957E+00      125
 Si  2.520099251570E+00  1.886848487002E+01  1.581186583771E+01  0.000000000000E+00  6.365917981350E+00  1.725676723018E+01 -1.044175593958E+00  1.446124000500E+01 -9.803507699092E-01  5.810483823229E+01      126
 Si  3.471955131795E+00  2.036567183968E+01  1.293606325159E+01  0.000000000000E+00  1.533549845787E+01 -6.006008786271E+01  2.218983487400E+01 -3.814954407615E+01  6.422075711096E+00  8.104583143865E+01      127
 O   1.012014903984E+00  1.844619828058E+01  1.543273009782E+01  0.000000000000E+00  1.878278472461E+01 -1.541335858458E+01  4.545677560287E+00 -1.289535108094E+01  1.979991213589E+01 -1.206880666955E+01      128
 O   2.156267338001E+00  1.703430153807E+01  1.356154807417E+01  0.000000000000E+00  1.541826873005E+01 -8.332195253492E+00 -4.289427995110E+00 -6.633525081205E+00  3.068662397497E+00 -1.116322593493E+01      129
 O   8.228569664708E-01  1.575398835132E+01  1.548524865868E+01  0.000000000000E+00  2.403507308369E+00  3.023980255793E+00 -2.690234425855E+01  2.972395634402E+00  2.958934397972E+00  5.948675003207E+00      131
 O   3.743350115663E+00  1.777479166021E+01  1.632593141482E+01  0.000000000000E+00 -6.557401720201E+00  2.064321067537E+01 -1.677382360595E+01  1.896053962884E+01 -3.846321927941E+00 -3.113495367054E+01      132
 O   2.683674974274E+00  4.057938794922E+00  8.377900061364E+00  0.000000000000E+00  8.883969173061E+00 -7.306009747884E+00 -1.979235873227E+01 -1.508377100013E+01 -7.331169640863E+00  4.636599596862E+00      133
 O   3.081426558042E+00  1.981091082489E+01  1.444784160628E+01  0.000000000000E+00  7.903900363020E-01 -2.997945764377E+01  2.872295815615E+01 -2.186363157695E+01  6.697870557657E+00 -1.028000339060E+01      134
 O   2.202778410938E+00  2.030888672336E+01  1.196970898089E+01  0.000000000000E+00 -4.220498717955E+00  2.156963448569E+01 -1.657315630127E+01  1.271277205564E+01 -7.065404875121E+00 -3.639530266913E+01      135
 O   8.447423758215E+00  1.561784856202E+01  1.258535669537E+01  0.000000000000E+00 -7.309786884679E+00  1.514489737987E+01 -5.910101032350E+00  1.220423766331E+01 -3.966921961973E+00 -1.351455163766E+01      136
 Si  9.044986076541E+00  1.394213260591E+01  2.583464728349E+01  0.000000000000E+00  4.450855428081E+00 -6.842634463610E+00  4.077338863367E+01 -1.267934058971E+01  1.427519905490E+01  6.860642577326E+00      139
 Si  8.960589857777E+00  1.660865427172E+01  2.426055729772E+01  0.000000000000E+00 -1.696578814972E+01 -1.880510839324E+01 -2.814755262934E+00 -2.746895697869E+01 -1.039624405642E+00 -3.144646884840E+01      140
 O   8.502519082697E+00  1.511282869565E+01  2.493580109406E+01  0.000000000000E+00  3.839371337771E+00  3.139216141686E+01 -2.893194028998E+01  5.179630556050E+01 -9.865108142589E+00  6.824302393489E+00      142
 O   7.991638969860E+00  1.272792341428E+01  2.556548943343E+01  0.000000000000E+00 -6.009040661846E+00 -6.025984955043E+00  1.998808940893E+01 -1.210387976732E+01  6.248172743550E+00 -9.570328392679E+00      143
 O   7.812628193094E+00  1.762843828535E+01  2.462791441728E+01  0.000000000000E+00 -1.133866959216E+01  1.618726660106E+01  1.730255691279E+01  2.261451695537E+01  5.488830343451E+00 -2.558460894377E+01      148
 O   1.324795791326E+01  1.620566420999E+01  1.565447976175E+00  0.000000000000E+00  1.896879915121E+01  1.422161119308E+01  2.294307969349E+01 -1.989289647020E+00 -1.744821402083E+01  2.320372630439E+01      150
 Ca  5.182704427161E+00  1.140987848354E+01  7.597130452007E+00  0.000000000000E+00  9.557395416090E-01  2.120374534319E+00  1.198118205263E+01  1.411825898723E+00  8.173470978160E+00  2.104089126619E+00      151
 Ca  1.265366198462E+01  2.186634902358E+01  1.441900840778E+00  0.000000000000E+00 -1.290325332861E+00 -1.676836782436E+00 -3.532257148349E+01 -1.321340400692E+00 -5.241428028586E+00 -2.229765906233E+00      152
 H   7.928001111592E+00  1.787568996941E+01  1.567057820984E+01  0.000000000000E+00 -2.065548624116E+01  5.860747113570E-02 -5.147407631173E+00  5.137776285472E-02 -2.604157477491E+00 -4.657303436480E+01      155
 H   1.038904630403E+01  1.397525815738E+01  3.597769001708E+01  0.000000000000E+00  2.189963197529E+00  6.103998801382E+00  2.885764307352E+01  1.571404079035E+01  8.333036111370E+00  2.945920168702E+00      156
 H   1.694867626849E+01  1.664434763584E+01  1.376290364216E+01  0.000000000000E+00 -5.583164953906E+01 -8.981212846472E+00 -3.644371604690E+01 -7.426399021469E+00 -4.487953714995E+01 -5.482914236422E+01      159
 H   1.642598729445E+01  4.621925989865E+00  1.205665357416E+01  0.000000000000E+00 -4.369857121525E+01 -6.102535973129E+00 -5.546429043904E+00 -1.591893992097E+01 -7.556456063397E+00 -1.229585524445E+01      160
 H   1.669849585606E+01  1.486964373099E+01  1.913202281175E+01  0.000000000000E+00  1.255833741448E+00  1.828930046241E+01 -8.195447178364E+00  2.353192315754E+01 -7.153014717419E+00  1.118292358885E+00      164
 H   1.947125036378E+01  6.312966423886E+00  5.428597327249E+00  0.000000000000E+00 -8.064240233045E+01 -1.598496872554E+01 -1.278935599043E+00 -1.374567084205E+01 -4.587276187001E+00 -2.614586987186E+01      168
 H   4.493068355349E+00  2.102640635805E+01  3.372142889679E+01  0.000000000000E+00  7.072566013027E-01  1.517099923288E+00 -3.660566960800E+01  2.433072790533E+00 -4.877366740462E+00  3.309779313884E+00      169
 Si  1.241180232685E+01  9.974117613457E-01  1.982608645595E+01  0.000000000000E+00 -2.616734232487E+01 -1.374834320784E+02 -5.660285089465E+01 -2.087591367341E+00 -3.543530378534E+01 -5.614161897724E+01      177
 Si  1.106858112225E+01  3.433713686821E+00  1.904001165965E+01  0.000000000000E+00 -2.080141993866E+01  5.507631608050E+00  4.034653885116E+01  2.646628254838E+01  2.345476180682E+01 -6.794107384291E+00      178
 Si  8.125293478452E+00  3.967401238076E+00  2.020490821427E+01  0.000000000000E+00  3.657066576453E+00  1.246339925362E+01 -2.990532252451E+01  6.173682647765E+01 -1.202626210931E+01  1.863259225744E+00      179
 O   1.123670727530E+01  1.900728656448E+00  1.883473324469E+01  0.000000000000E+00  2.130876993877E+01  4.506713381268E+00 -3.773196989821E+00 -5.337639951377E+01 -2.251070377046E+00  3.725281309282E+00      180
 O   1.158921406112E+01  9.519610444353E-01  2.114270397484E+01  0.000000000000E+00 -1.301846948752E+00  1.270691829270E+01  7.904902631383E+01 -2.939914556335E+00  4.333012884086E+01  2.745225111010E+00      182
 O   1.119022515022E+01  4.532371647275E+00  1.783344678562E+01  0.000000000000E+00  1.092988728684E+01 -5.397636780220E+00  2.211755214723E+01 -2.123520549794E+01  1.387843815470E+01  4.426791320684E+00      184
 O   1.196671605210E+01  3.738927363969E+00  2.036342742731E+01  0.000000000000E+00 -1.602788199599E+00  5.250404783687E+00 -8.046908989223E+00  2.629646988320E+01 -4.728824522044E+00 -5.611901648250E-01      185
 O   9.357491528357E+00  3.581263203485E+00  1.928253388076E+01  0.000000000000E+00  1.421257875209E+01 -2.114194612725E+00 -2.313383353308E+01 -1.254765567498E+01 -1.122646290383E+01  5.411164707910E+00      187
 O   6.983807626422E+00  4.861914440268E+00  1.953466503201E+01  0.000000000000E+00 -9.127461380955E+00 -4.508286804471E+00 -1.825734702557E+01 -1.811382608138E+01 -6.527155658234E+00 -6.354260979808E+00      188
 Ca  1.127643092257E+01  4.552074330803E+00  2.238771200974E+01  0.000000000000E+00 -9.507329087089E+00 -4.553540569879E+00 -8.783786517462E+00 -2.239492317014E+01 -4.424291408594E+00 -3.837922565128E+00      190
 O   1.572215518960E+01  2.028210766186E+01  8.556319777975E+00  0.000000000000E+00  4.661952116324E-01  4.318592294422E+00  3.601678222925E+00  1.821864733084E+00  6.618049048330E+00  6.014074635282E-01      193
 O   5.029211988471E+00  1.234550666435E+01  1.270313885374E+01  0.000000000000E+00 -1.076255614993E+01  1.888689265343E+01  4.268623412909E+01  1.943401971383E+01  1.689961220580E+01 -2.641948857574E+01      194
 Si  1.816955231087E+01  1.278095668995E+00  1.965463189332E+01  0.000000000000E+00 -1.882238284075E+00 -1.281078418190E+02 -2.032439670466E+01 -1.201711623349E+01 -1.878871052465E+01 -3.061834193700E+01      196
 Si  1.619829334960E+01  3.650151824221E+00  1.978033749288E+01  0.000000000000E+00 -1.701687671273E+01  2.461652291841E+00 -7.183627036242E+01  1.008855929579E+01 -5.882735726276E+01 -4.333687584015E+00      197
 O   1.979055132597E+01  1.516192539449E+00  1.975209891627E+01  0.000000000000E+00 -1.645195627275E+01  1.678431016860E+01  5.105290326643E+00  9.407173608281E-02  5.115229053463E+00 -2.577109927495E+00      202
 O   1.721001471752E+01  2.430894868860E+00  2.020201834811E+01  0.000000000000E+00 -1.275646886854E+01 -4.174830199112E-01  1.308696389966E+01  2.060061752496E+01  1.114872966849E+01  8.391280754496E-03      205
 O   1.524444175450E+01  4.627195246738E+00  2.061164403178E+01  0.000000000000E+00  1.207311531655E+01  1.911608006404E-01  7.947669968895E+00  8.515176398501E-01  5.878123634295E+00  3.664592164522E+00      206
 Ca  1.391312313915E+01  5.469529687554E+00  1.857632478823E+01  0.000000000000E+00  5.365822872605E+00 -3.400045979355E+00  4.205386290613E+00 -1.154767631139E+01  3.149711149864E+00  2.109413336340E+00      209
 O   2.314854660193E+01  1.941476281818E+01  1.452387993873E+01  0.000000000000E+00  3.441315619790E+01 -1.707590860743E+01  2.930788982992E+01 -1.277421974101E+01  4.671169524909E+01  2.886242825075E+01      210
 O   1.394690117923E+01  1.782015994144E+01  4.290608355133E+00  0.000000000000E+00 -1.671243952893E+00 -3.353012298781E+01  1.183735523110E+00 -8.111353544146E+00  4.384250543329E+00 -2.135372880255E+00      212
 Si  1.296838847240E+01  3.857804184905E+00  1.455607756865E+01  0.000000000000E+00  4.662707540715E+00 -1.438304894823E+01  3.883030319588E+00 -5.426941496493E+01  3.459492806152E+00  1.387050727378E+00      213
 Si  1.115912438404E+01  5.388748395886E+00  1.652671829606E+01  0.000000000000E+00 -2.867198362156E+01  1.674394035740E+01 -2.804964966715E+01  5.135188454224E+01 -1.893960579210E+01 -1.384571946958E+01      214
 Si  9.190865906106E+00  6.335084671470E+00  1.440357348803E+01  0.000000000000E+00  1.466289797738E+01 -1.841435156782E+01 -1.733179592860E+01 -4.186723300416E+01 -1.105935359889E+01  1.010684968803E+01      215
 O   1.213750630157E+01  4.923629968805E+00  1.536970678688E+01  0.000000000000E+00 -1.244556652642E+01  8.734101901122E+00  2.157385269596E+01  2.726455605265E+01  1.703694004559E+01 -5.048595881702E+00      216
 O   1.416661233941E+01  3.484115604720E+00  1.559027527958E+01  0.000000000000E+00  1.346421317086E+01 -8.391693153925E-01  3.308249772668E+00 -4.592433819887E+00  3.006149103265E+00  3.478283498632E+00      217
 O   1.324169604171E+01  4.404901128722E+00  1.312113614529E+01  0.000000000000E+00  1.374359540112E+01  1.971768203216E+00 -1.898746685856E+01  5.873421056527E+00 -1.916192789702E+01  4.571859881423E+00      218
 O   1.210704952806E+01  2.418227917265E+00  1.432442378326E+01  0.000000000000E+00  2.828063275896E+00 -5.097127168482E-02  1.881287492295E+00 -6.436269993758E+00  1.590070301632E+00  1.782106086649E+00      219
 O   1.168770568486E+01  6.931860549226E+00  1.726217916943E+01  0.000000000000E+00 -4.645969345098E+00 -1.874734052906E+01 -8.758608085849E+00 -4.668587154411E+01 -5.930191809024E+00 -2.755477634752E+00      220
 O   9.536597709311E+00  5.310334490035E+00  1.579925774114E+01  0.000000000000E+00  2.068268090668E+01  6.478358178498E+00  2.378324115011E+00  1.927435094598E+01  1.435581384824E+00  1.151689073115E+01      222
 O   1.056297239166E+01  6.254025114152E+00  1.341645672563E+01  0.000000000000E+00 -3.711475856716E+01  6.154140929709E+00  2.957641198018E+01  1.320218002964E+01  2.328594125706E+01 -2.197455636332E+01      223
 O   2.086029793944E+01  2.005385049495E+01  1.224623060672E+01  0.000000000000E+00 -3.702038205793E+01 -3.130247643373E+00  1.366977912394E+01 -1.911539856474E+00  2.328517847243E+01 -3.558919480492E+01      224
 Ca  1.557543408698E+01  6.589218127857E+00  5.836977201005E+00  0.000000000000E+00 -5.348765625304E-01  1.510968149325E+00 -1.367688140935E+00  1.338472405666E+00 -3.649549374120E+00 -2.262805853313E-01      225
 Ca  1.644370876314E+01  3.957606341650E+00  1.621269412657E+01  0.000000000000E+00 -1.052622198612E+01 -1.977056748976E+00  6.998801780908E+00 -5.045179390704E-01  7.098527689335E+00 -2.111599901191E+00      226
 Si  2.118206942418E+01  2.547255664352E+00  1.955959225664E+01  0.000000000000E+00 -1.029277885255E+01 -5.934577880688E+00  4.560797063685E+01 -4.503482999833E+01  4.939117276323E+01  2.786017736430E-01      228
 Si  2.236214774755E+01  4.895818625624E+00  2.082947016137E+01  0.000000000000E+00 -1.048774681768E+01  5.216206235621E+00 -7.306182044871E+01  2.219257297885E+01 -7.843786764243E+01 -2.296116937894E+00      229
 O   2.233966222462E+01  1.710823256430E+00  2.029226159024E+01  0.000000000000E+00 -6.316833917168E+00 -1.378013531246E+00  2.297598692381E+01 -3.520431657300E+01  2.529416373196E+01  3.680803088208E+00      230
 O   2.089511658572E+01  3.932089555865E+00  2.028689542355E+01  0.000000000000E+00  7.141656640243E+00  1.145191465288E+01  3.898229090327E+01  5.939381716184E+01  4.015101848736E+01  1.318069988558E+00      236
 O   2.231214253660E+01  5.059554879632E+00  2.245134294666E+01  0.000000000000E+00  4.932861132247E+01 -1.884473228516E+00  3.580122763860E+01 -8.362189112235E+00  3.557925670439E+01  1.118587404651E+01      237
 H   1.385328157044E+01  1.725378351043E+01  5.120434994491E+00  0.000000000000E+00 -2.353014028496E+00  1.377048723126E+01 -4.125429811873E+00  4.086691169360E+00 -1.116130579617E+01 -2.930597666572E+00      243
 H   1.739836338916E+01  1.669734966232E+01  7.132195277492E+00  0.000000000000E+00 -2.935009390281E+01 -2.995702432416E+01 -7.333542758389E-01 -1.279600366127E+01 -1.788953286838E+00 -2.816752182693E+01      247
 H   1.303384415493E+01  6.921504667307E+00  6.351564112779E+00  0.000000000000E+00 -3.892969955844E+01 -1.002622139804E+01  2.943331128897E+00 -9.200627765138E+00  6.039916869170E+00 -2.067326369625E+01      248
 H   5.322477748184E+00  9.387840346832E+00  9.925674845814E+00  0.000000000000E+00 -1.628919266229E+00 -2.209533542667E+01 -1.047195679353E+01 -2.336118925674E+01 -5.615412340151E+00 -2.873104357169E+00      249