     8448
Lattice="     49.70      0.00      0.00      0.00     49.70      0.00      0.00      0.00     49.70" pbc="T T T" config_type=md Properties=species:S:1:pos:R:3:charge:R:1:forces:R:3:id:I:1
 Si  1.074324750424E+01  1.768290767047E+01  1.565225461336E+01  0.000000000000E+00 -9.957957407434E+00 -1.366290946898E+01 -2.643981343318E+01 -1.209390117017E+01 -1.814751080245E+01 -1.639035509073E+01        1
 Si  1.224370676280E+01  2.027681931644E+01  1.690969899894E+01  0.000000000000E+00  1.615238518810E+01 -3.556320903935E+01 -1.393498966037E+01 -2.965766725574E+01 -1.008982638632E+01  2.674998693888E+01        2
 Si  1.097126019834E+01  2.258994328942E+01  1.771394050125E+01  0.000000000000E+00 -3.685809403815E+01  9.201456046229E-01 -1.160440154962E+01  7.215336614151E-01 -7.187272015388E+00 -7.589121386473E+01        3
 O   1.101376671192E+01  1.917589812075E+01  1.647270159112E+01  0.000000000000E+00  1.108079246764E+01 -7.104425625598E+00 -9.325463455799E+00 -6.102925796220E+00 -6.235071910610E+00  1.929259562277E+01        4
 O   9.268139427537E+00  1.792306418767E+01  1.488977735130E+01  0.000000000000E+00  9.774051681412E+00  6.991833317440E+00  1.334366113076E+01  5.808540341317E+00  8.305759644078E+00  1.890141565404E+01        5
 O   1.173847009400E+01  1.698436965969E+01  1.447633367410E+01  0.000000000000E+00 -9.114969448645E+00  2.760063329127E+01  1.937845570750E+01  2.352492233428E+01  1.571346916363E+01 -1.318843165360E+01        6
 O   1.061716177266E+01  1.638761256754E+01  1.669617121048E+01  0.000000000000E+00  1.871264687743E+01  4.932364658962E+00 -1.774529466629E+01  5.025235035254E+00 -1.128430355681E+01  2.888301164725E+01        7
 O   1.278847304855E+01  2.142015062677E+01  1.579296897953E+01  0.000000000000E+00 -3.066740324546E+00 -2.424251574612E+00 -9.031487867880E+00 -1.787388454150E+00 -7.313313876348E+00 -5.136660134135E+00        8
 O   1.366995080578E+01  1.957725648094E+01  1.759455488484E+01  0.000000000000E+00 -2.052423353322E+01  1.854893222742E+01 -9.884767808404E+00  1.667037495516E+01 -7.679892475365E+00 -2.939353547524E+01        9
 O   1.151329156554E+01  2.105006217231E+01  1.814201334100E+01  0.000000000000E+00  4.559848082369E+00  3.980279968584E+01 -2.310492778144E+00  3.430407554138E+01 -1.466285825881E+00  8.336893501196E+00       11
 O   1.896286002323E+01  1.782583036133E+01  2.108824370949E+01  0.000000000000E+00  2.075883009153E+01  6.422930447197E+00 -4.414810535046E+01  7.598429910646E+00 -3.969862799314E+01  1.951411249452E+01       13
 Ca  1.968542965314E+00  1.635321789285E+01  1.758196318717E+01  0.000000000000E+00 -4.282273665257E+00  6.572054292154E-01 -1.401850736214E+00  7.065864185618E-01  4.524834678766E+00  1.466234098410E+01       14
 Ca  2.080134481044E+01  1.393981385984E+01  1.854306385280E+01  0.000000000000E+00 -1.022885708381E+00  9.570254632022E+00  1.171723653400E+00  1.273057477765E+01  1.314422898525E+00 -6.854766605070E-01       15
 O   6.574033113968E+00  3.926592624394E+00  1.543213958134E+01  0.000000000000E+00  3.186497694758E+01  1.048624469963E+01  4.715741820483E+01  4.281354813395E+01  2.008888185683E+01  1.887518438838E+01       16
 O   9.282816568471E+00  1.599486032124E+01  1.944099114907E+01  0.000000000000E+00  2.404619236600E+01  9.301933084477E+00 -1.022112043423E+01  1.130605676652E+01 -4.880450044327E+00  4.143305917066E+01       18
 Si  2.008354509793E+01  2.002952401211E+01  1.798744630215E+01  0.000000000000E+00  3.118165518437E+01 -1.268495675088E+01  1.443415067516E+01 -1.139168251145E+01  1.611617964916E+01  3.109778219966E+01       19
 Si  1.761243282893E+01  2.142885324594E+01  1.854703140687E+01  0.000000000000E+00  4.782716980358E+01  2.167427113448E-01 -8.285574362537E+00  1.875944470003E-01 -7.868058165644E+00  5.819079129181E+01       20
 O   1.857530041015E+01  1.998472552867E+01  1.854675447666E+01  0.000000000000E+00 -6.401450831234E+00  1.257661883028E+01 -5.693626657520E-01  1.167168702203E+01 -5.702389909769E-01 -6.887169252863E+00       22
 O   2.089032336331E+01  2.143181986277E+01  1.816476995033E+01  0.000000000000E+00 -1.642566424488E+00 -1.582928380505E+01 -1.063629513784E+01 -1.341628012173E+01 -1.223223004886E+01 -1.685143265139E+00       23
 O   2.029901707066E+01  1.935167060082E+01  1.649534345748E+01  0.000000000000E+00 -6.888667147278E+00  1.795815486786E+01  2.243034609162E+01  1.530751212742E+01  2.760257641124E+01 -6.567175989299E+00       24
 O   2.088071277636E+01  1.904511333757E+01  1.940028565007E+01  0.000000000000E+00 -3.330356756347E+00  7.579031564494E+01 -7.364911349953E+01  7.720372921703E+01 -7.926924443050E+01 -3.037588925172E+00       25
 O   1.833001319857E+01  2.240271923883E+01  1.973201530240E+01  0.000000000000E+00 -3.209602351796E+01 -1.038029611717E+01 -3.063887067708E+01 -9.142825906261E+00 -2.846191305312E+01 -3.922736965689E+01       26
 O   2.185493681189E+01  1.749148909357E+01  2.112367383729E+01  0.000000000000E+00 -4.563795165253E+01 -3.643465743448E-01 -1.593892055581E+00 -4.400047451090E-01 -1.649069684943E+00 -3.652610576979E+01       27
 O   1.784337984365E+01  2.208061419623E+01  1.691986144758E+01  0.000000000000E+00  3.024264404158E+00 -6.169992648978E+00  3.770638936400E+01 -4.727921960212E+00  3.976447620677E+01  3.742430869080E+00       29
 Ca  4.493432183747E+00  1.048187547623E+01  1.413795181075E+01  0.000000000000E+00 -1.944039353116E+00  7.669182175516E+00  7.739149115197E+00  1.034419157823E+01  2.540758585451E+00 -8.177699859434E-01       32
 Si  1.352676053462E+01  1.982907771652E+01  1.248590609096E+01  0.000000000000E+00  1.078919375403E+01 -3.465612016508E+01 -3.843064339131E+00 -2.182214765832E+01 -4.163431204420E+00  1.581603820809E+01       37
 Si  1.271827517012E+01  2.229084875741E+01  1.421820236613E+01  0.000000000000E+00 -2.343660884038E+01 -1.574288421621E+01  9.637755488432E+00 -1.004158774072E+01  8.621035428236E+00 -4.107647429069E+01       38
 O   1.324584976268E+01  2.151258859709E+01  1.282610322860E+01  0.000000000000E+00 -1.909921185498E+00 -2.833725942895E+01  1.455227502239E+01 -1.689506648681E+01  1.502851218458E+01 -3.101903573772E+00       40
 O   1.333599262792E+01  1.859685719642E+01  1.362920047325E+01  0.000000000000E+00  1.046606863914E+01  3.546535180934E+01 -7.206250501996E-01  2.599172454564E+01 -7.051220925111E-01  1.459478790372E+01       41
 O   1.513362424196E+01  1.969945171050E+01  1.211374478700E+01  0.000000000000E+00 -1.540515099793E+01  1.664223057124E+01  3.571076166618E+00  1.023377385265E+01  4.461322720205E+00 -2.005289832263E+01       42
 O   1.247578857442E+01  1.937135002038E+01  1.133244842401E+01  0.000000000000E+00 -1.177709094536E+00  1.560739056559E+01  1.839525108995E+00  9.130491598772E+00  2.025116327777E+00 -1.828647139727E+00       43
 O   1.339734646113E+01  2.372860020467E+01  1.410134347454E+01  0.000000000000E+00 -1.478194872361E+00 -1.142885258685E+01  5.921822748483E+00 -6.791895622033E+00  5.626181022120E+00 -2.618092713555E+00       44
 O   1.093775070914E+01  2.219578774963E+01  1.398537890142E+01  0.000000000000E+00  8.728177202150E+00  2.925318650244E+01  4.977397475563E+00  1.843218640966E+01  3.892746356877E+00  1.771193856687E+01       46
 O   8.372330669354E+00  2.162453513954E+01  1.432482356985E+01  0.000000000000E+00 -5.626930226187E+00  6.215824735896E+00  1.123822884507E-01  4.117572567839E+00  6.568329974185E-02 -1.453355764474E+01       47
 O   1.682835268626E+01  1.541601415504E+01  1.018132967887E+01  0.000000000000E+00  1.277847423132E+01 -3.567389003471E+00  4.150357992567E+00 -2.356041138249E+00  6.859977063518E+00  1.170602632964E+01       48
 Ca  6.488630760775E+00  2.113895112657E+01  1.280953607329E+01  0.000000000000E+00 -1.449121320171E+00 -4.252292798016E+00  1.004684706218E+00 -2.576754999065E+00  5.089199212484E-01 -4.721012166195E+00       49
 Si  2.006672929497E+01  2.050288598042E+01  2.307542473782E+01  0.000000000000E+00  5.007984109086E+01 -2.513376230108E+01 -2.486241268611E+01 -2.828734651848E+01 -2.162072034039E+01  5.116834222010E+01       51
 Si  1.922968991468E+01  2.258764988121E+01  2.103329235196E+01  0.000000000000E+00 -1.998849784180E+01 -2.750286922622E+01  3.433919807378E+01 -2.561027340139E+01  3.139461572768E+01 -2.347896367051E+01       52
 O   1.912836956696E+01  2.110634347982E+01  2.190240782926E+01  0.000000000000E+00 -5.429124602369E+00  2.720532624564E+01 -5.460159367330E+00  2.823142488560E+01 -4.768605675093E+00 -5.990524610640E+00       54
 O   1.944202080893E+01  1.895976320001E+01  2.350446579620E+01  0.000000000000E+00  1.236137365069E+01  1.539463679046E+01 -2.180192211520E+01  1.908476968140E+01 -1.803373993324E+01  1.205475086912E+01       55
 O   2.169212648985E+01  2.040804469358E+01  2.239378656251E+01  0.000000000000E+00 -3.892961403438E+01 -8.765028000950E+00  2.472814388595E+01 -9.617882027151E+00  2.395334185829E+01 -3.662514615564E+01       56
 O   2.022610304959E+01  2.127765560824E+01  2.446470096687E+01  0.000000000000E+00  4.139909522952E+00  7.348655876831E+00  3.493908916011E+00  8.449364527996E+00  2.888576560851E+00  4.355142899383E+00       57
 O   1.621394372032E+01  2.083257484989E+01  1.878131202232E+01  0.000000000000E+00 -3.753359905845E+01  1.372564033162E+01 -4.829140752062E+00  1.237415612961E+01 -4.169006738101E+00 -4.822525137984E+01       58
 O   1.428214737658E+01  1.149292044466E+01  1.144932427685E+01  0.000000000000E+00 -2.665521923545E+01 -3.442470687306E+01  1.049306107210E+01 -3.429412341475E+01  1.308928291657E+01 -2.144959760115E+01       59
 H   3.877964636798E+00  5.813143445941E+00  1.627239336270E+01  0.000000000000E+00  2.564373667929E+00  1.614800043171E+01 -1.422724400268E+01  4.520215568209E+01 -3.400531091751E+00  3.884444418645E+00       70
 H   1.452738396161E+01  1.928015234906E+01  1.721100650140E+01  0.000000000000E+00 -8.252573524135E+00  1.235407806605E+00 -1.125327023018E+00  1.102823847365E+00 -9.498606455361E-01 -1.095247948548E+01       73
 H   1.617153264974E+01  1.347956858584E+01  1.600799664049E+01  0.000000000000E+00 -1.822847653900E+00  1.855282819013E+00 -4.898280858125E+00  2.203287215373E+00 -4.948321179953E+00 -1.519410714152E+00       83
 Si  2.175396360794E+00  2.091822483926E+01  2.125948470243E+01  0.000000000000E+00  1.494867039197E+01 -3.064621546952E+01  6.961338512313E+01 -3.114617774539E+01  8.656778598453E+00  8.406761183911E+01       89
 Si  2.346109974479E+00  2.085462258248E+01  1.824896741572E+01  0.000000000000E+00  5.724589846472E+00  4.119401866488E+01 -5.393801346780E+00  3.604708267267E+01 -1.006638436781E+00  4.976346902917E+01       90
 O   1.671918589325E+00  2.104830277393E+01  1.975019551331E+01  0.000000000000E+00  3.919661429477E+01 -1.409001481104E+01 -6.212129737782E+01 -1.322104448479E+01 -7.908157656542E+00 -1.949368668220E+01       92
 O   2.422552325251E+00  1.941909636013E+01  2.198037091405E+01  0.000000000000E+00 -1.008072626902E+00  1.467800636896E+01 -1.788043410696E+01  1.661395660670E+01 -1.813922275059E+00 -1.913329811163E+01       95
 O   1.480161614750E+00  2.003391759418E+01  1.725882852115E+01  0.000000000000E+00  5.027237245089E+00 -3.698309084745E+01 -4.895558921049E+01 -3.186021007213E+01 -7.051961377016E+00 -3.053566808787E+01       96
 O   3.846596461159E+00  2.029528414965E+01  1.834606346205E+01  0.000000000000E+00  9.924775438061E-01 -9.140445158927E+00  7.349640472764E+00 -8.262569063857E+00  1.360993249532E+00  2.813578131311E+00       97
 O   1.133125778748E+01  1.538302996478E+01  2.084108549490E+01  0.000000000000E+00 -6.630188359183E+00  4.648778543268E+00  9.382608686235E+00  6.298212464573E+00  5.101306156475E+00 -9.000976600691E+00       98
 O   3.671391449157E+00  1.206731332689E+01  2.009307019743E+01  0.000000000000E+00 -4.078288185037E+00 -8.362285337555E+00 -6.141502249820E+00 -1.392389355832E+01 -1.265905145419E+00 -9.864132514216E+00      101
 Ca  2.206871103200E+01  2.340884474399E+01  1.855677637516E+01  0.000000000000E+00 -1.308140756021E+01  1.290359413631E+01 -3.310966772515E+00  1.022900162062E+01 -3.937578783188E+00 -1.387578269370E+01      102
 O   1.667713464704E+01  3.665819423837E+00  1.054042859562E+01  0.000000000000E+00  1.581487868880E+01  2.135469393966E+01  7.562538191472E+00  6.142747757711E+01  1.196549709041E+01  3.477783535223E+00      105
 Si  5.176467622003E+00  1.595332232806E+01  1.947922952705E+01  0.000000000000E+00  1.039680614477E+00  3.301963344273E+00  1.848777888383E+01  4.031743391775E+00  4.912996618372E+00  3.204185010350E+00      107
 Si  8.036625615194E+00  1.674059299010E+01  2.004611011396E+01  0.000000000000E+00 -2.833421576863E+00  4.617195866894E+01  1.217031745099E+01  5.528885196612E+01  4.879165305172E+00 -5.902123560160E+00      108
 Si  7.779491761992E+00  2.005800545854E+01  1.953331138919E+01  0.000000000000E+00 -3.234742889585E+00 -4.317441627848E+01 -4.924328962270E+00 -4.204502381639E+01 -1.961202370251E+00 -8.340196573416E+00      109
 O   6.825063624040E+00  1.618177934517E+01  1.917168250123E+01  0.000000000000E+00 -1.012300402399E+01 -1.297533792218E+01 -1.501168779266E+01 -1.537278773143E+01 -5.344117517205E+00 -2.400098027652E+01      110
 O   4.274829624850E+00  1.661432568549E+01  1.837505252863E+01  0.000000000000E+00 -1.095192895062E+00  1.512792030663E+01 -2.037083169273E+01  1.673112322133E+01 -4.739111742824E+00 -4.258135865614E+00      111
 O   5.050472347381E+00  1.659239035068E+01  2.095895791498E+01  0.000000000000E+00 -1.308047369206E+00  1.506456408491E+01  1.294165321416E+01  1.902905838099E+01  3.118545394893E+00 -4.297347070576E+00      112
 O   4.619544845953E+00  1.441769499234E+01  1.974078706449E+01  0.000000000000E+00  4.630011079644E+00 -2.613023071783E-01 -1.746171344768E+01 -3.577765522302E-01 -4.085426425529E+00  1.473615638569E+01      113
 O   7.866554318385E+00  1.646147196619E+01  2.163206258538E+01  0.000000000000E+00  4.780984181366E+00 -1.762886249385E+01  3.323883957404E+01 -2.316613347575E+01  1.208738815160E+01  1.000463911988E+01      114
 O   1.107262648461E+01  1.386972252841E+01  3.548153509182E+01  0.000000000000E+00 -3.115387922018E+00  3.291480788898E+01  5.077078578453E+00  8.420268745544E+01  1.584390150729E+00 -3.902377282103E+00      115
 O   8.007772118034E+00  1.843977614800E+01  2.009907415531E+01  0.000000000000E+00  1.960635065305E+00  2.182947049204E+00 -1.214198944266E+01  2.379378917993E+00 -4.837550414765E+00  4.514822747108E+00      117
 O   6.547510047594E+00  2.070781413861E+01  2.035370281200E+01  0.000000000000E+00 -7.104948543772E+00 -4.271066880912E+00 -2.660972361039E+00 -4.198030048096E+00 -8.559987060436E-01 -2.247082522048E+01      118
 O   6.529189293373E+00  1.016001280349E+01  2.188998130926E+01  0.000000000000E+00 -4.298240696860E-01 -2.886455358656E+00  4.694049233721E+01 -6.218934471158E+00  1.400107910846E+01 -6.688453734507E-01      119
 Ca  2.361217455154E+01  1.896076165577E+01  2.091119135753E+01  0.000000000000E+00 -2.177846517181E+01 -9.957449125545E+00 -2.145503019874E+01 -1.098173838570E+01 -2.422625805481E+01 -1.748827861872E+01      120
 Ca  2.915514474527E+00  1.205458819379E+01  1.814371053811E+01  0.000000000000E+00 -8.324424842597E+00 -3.101304617218E+00 -3.028752589708E+01 -4.667863585276E+00 -1.015385761592E+00  1.662236578772E+00      121
 Si  1.209085352973E+00  1.711976623165E+01  1.422453345123E+01  0.000000000000E+00 -2.199010140072E+02 -2.328849563708E+01  2.701573532499E+00 -1.935002971046E+01 -1.531858593414E+02  8.863608369127E+00      125
 Si  2.267649491070E+00  1.953453172503E+01  1.576025284673E+01  0.000000000000E+00 -7.544179718343E+00 -1.364587415023E+01 -2.479709103343E-01 -1.100934642046E+01 -2.530937842372E+00 -5.111800269634E+01      126
 Si  3.061555886321E+00  2.114649829289E+01  1.292815176445E+01  0.000000000000E+00  3.216504672456E-01 -5.687168222128E+01  2.320064523393E+01 -3.476914847425E+01  5.169780491756E+00  4.757854412199E+01      127
 O   9.815031583834E-01  1.841115292488E+01  1.522328911127E+01  0.000000000000E+00  1.719029173508E+01  6.159282912180E+00 -4.978067593888E+00  5.092812214030E+00  2.424903251326E+01 -7.121224186518E+00      128
 O   2.806719594812E+00  1.694205600722E+01  1.360684242550E+01  0.000000000000E+00 -4.092800557172E-02  1.887988010807E+00 -6.663505843355E+00  1.516318642397E+00  1.252187061603E+00 -5.121747832778E+01      129
 O   1.114221222422E+00  1.571722752012E+01  1.526962142774E+01  0.000000000000E+00  1.441384971597E+01  1.106298304218E+01 -6.718356709132E+00  1.074792374796E+01  1.776467230969E+01  1.049190403807E+01      131
 O   3.257417821382E+00  1.839099110337E+01  1.618108702339E+01  0.000000000000E+00  6.496510626641E+00 -8.397618858925E+00 -1.456690104425E+00 -7.388541530022E+00 -6.679130778926E-01  3.728198572146E+01      132
 O   3.062015021451E+00  4.559612998597E+00  9.244461013730E+00  0.000000000000E+00  9.988531375580E+00 -1.390290731638E+01 -1.004458221078E+01 -2.818767397657E+01 -3.702487214932E+00  1.037655033950E+01      133
 O   2.400450156496E+00  2.050041211678E+01  1.447496321408E+01  0.000000000000E+00  3.862092478389E+00  1.993243774086E+01 -9.798874774297E+00  1.407392697387E+01 -1.157186776460E+00  7.735646054188E+00      134
 O   2.040607590871E+00  2.107498034519E+01  1.161667605519E+01  0.000000000000E+00  3.445129094842E+01 -2.158551507682E+01  1.956732431608E+01 -1.189808635760E+01 -6.660656988598E+00  1.059895623151E+02      135
 O   8.273890163593E+00  1.461652630234E+01  1.307904745024E+01  0.000000000000E+00 -1.397761971261E+00 -7.770251647988E+00  1.157353181116E+01 -6.952916712372E+00  7.321491215219E+00 -2.469264664310E+00      136
 Si  8.698781236958E+00  1.447699660883E+01  2.547620243693E+01  0.000000000000E+00 -6.857588665288E+00  2.976309650632E+01  3.593211356669E+00  5.237624158057E+01  1.226892414880E+00 -1.141278130209E+01      139
 Si  8.574695315113E+00  1.674499147980E+01  2.309869750952E+01  0.000000000000E+00  6.386810012659E+00  2.474057256459E+01  4.310577253420E+01  3.412811541714E+01  1.600171895627E+01  1.247240576077E+01      140
 O   8.155000813572E+00  1.574855435168E+01  2.445695950791E+01  0.000000000000E+00  1.202939342226E+01 -6.937319249415E+00 -2.055389943583E+01 -1.077341654272E+01 -6.853552935193E+00  2.323059929227E+01      142
 O   7.397432313846E+00  1.352599013358E+01  2.552928733799E+01  0.000000000000E+00  5.262526530368E+00  1.540780304356E+01  3.646005794981E+01  2.908106743104E+01  1.056476067161E+01  9.622376915056E+00      143
 O   7.751699099776E+00  1.817655906031E+01  2.355550765068E+01  0.000000000000E+00 -3.842246503225E-01  9.980298634876E+00  8.537845467261E+00  1.293374615459E+01  2.809653266831E+00 -9.009485480691E-01      148
 O   1.265306707291E+01  1.599385366334E+01  1.773722512559E+00  0.000000000000E+00 -6.880147681315E+00 -3.590360229671E+00  3.339485392320E+01  7.767666587307E-01 -8.744428331378E+00 -8.696711600679E+00      150
 Ca  4.365001000269E+00  1.171754408509E+01  7.523228449862E+00  0.000000000000E+00  1.641160501085E+00  4.284115977039E+00 -8.853262103769E+00  2.750609083859E+00 -5.203378550057E+00  5.251353454414E+00      151
 Ca  1.293443830127E+01  2.224876839559E+01  1.873238599871E+00  0.000000000000E+00  1.350613743108E+00 -1.953211596196E+01 -1.001854389708E+01 -3.365596558806E+00  1.419255556062E+00  2.323215872417E+00      152
 H   7.286054494997E+00  1.780531579709E+01  1.534831392961E+01  0.000000000000E+00  9.143142819579E+00 -1.006352789220E+01 -4.876939207469E+00 -8.674835486721E+00 -2.315149728978E+00  2.234358051978E+01      155
 H   1.021580887269E+01  1.412180955441E+01  3.596174269112E+01  0.000000000000E+00  1.634194421893E+01 -1.387297110369E+01 -3.118453629230E+01 -3.532806580277E+01 -8.858727044513E+00  2.259026445036E+01      156
 H   1.430305638689E+01  1.239520524226E+01  1.142247505663E+01  0.000000000000E+00 -7.706676911501E+00  5.326166413037E+01  1.488359566949E-01  4.908188433459E+01  1.863702105234E-01 -6.678701353746E+00      159
 H   1.660053214736E+01  2.785364162247E+00  1.050139131137E+01  0.000000000000E+00 -2.027241658973E+01 -1.681198414990E+01 -4.724284705468E+00 -6.393578344314E+01 -7.468119014044E+00 -3.479910606114E+00      160
 H   1.595280296779E+01  1.544335780026E+01  1.452247069519E+01  0.000000000000E+00 -1.359104832815E+01 -5.944159980221E+00 -7.584189747569E+01 -5.589709843985E+00 -8.331163977030E+01 -1.315702467059E+01      164
 H   1.879775580486E+01  5.910393625093E+00  6.238023537009E+00  0.000000000000E+00 -1.282309540038E+01  9.889410890209E+00 -1.768585292049E+01  1.043760903476E+01 -5.329482045517E+01 -4.031839869351E+00      168
 H   6.443479063010E+00  2.160147210223E+01  3.235075410609E+01  0.000000000000E+00 -7.672512583119E-01 -4.394238064765E+01  6.868280283859E+01 -6.580890156191E+01  1.367993465092E+01 -2.572175138579E+00      169
 Si  1.206389318244E+01  5.491452148290E-01  1.980770692936E+01  0.000000000000E+00 -1.706916585025E+01 -2.095637009200E+02 -8.031093537837E+00 -1.659247472373E+01 -4.891341280654E+00 -1.205154935142E+02      177
 Si  1.087917496252E+01  3.284276309944E+00  1.861796247021E+01  0.000000000000E+00 -6.729163942204E+00  1.640377541099E+00  3.123277895784E+01  9.081193623796E+00  1.825048618460E+01 -1.905572913534E+00      178
 Si  8.089022568584E+00  3.992402957416E+00  1.996755020962E+01  0.000000000000E+00  1.500587759114E+01 -3.096157750485E+00 -1.851049123455E+01 -1.548508154090E+01 -7.498755720155E+00  7.406273077563E+00      179
 O   1.153830169702E+01  1.703928328852E+00  1.866833389839E+01  0.000000000000E+00  8.931313780742E-01  1.005911398817E+01 -3.767314009844E+00  1.637452653670E+01 -2.328456619086E+00  7.159924946650E-01      180
 O   1.187099029370E+01  1.309934520398E+00  2.130174771863E+01  0.000000000000E+00  5.162015528997E+00 -4.802239019341E-01 -2.188215545713E+01 -5.960699858672E+00 -1.219443861921E+01  1.376992103377E+00      182
 O   1.043787194992E+01  3.745696302896E+00  1.703043183485E+01  0.000000000000E+00  2.271486920927E+01 -2.025492957268E+00  3.579772679808E+01 -6.354490361116E+00  2.194025918075E+01  8.076942025629E+00      184
 O   1.186131690366E+01  4.527249309722E+00  1.940569899099E+01  0.000000000000E+00 -2.270170126150E+01 -1.640477871929E+01 -2.618592614200E+01 -7.031779698030E+01 -1.600558519074E+01 -8.664827202614E+00      185
 O   9.393143583586E+00  2.986241060954E+00  1.944574780120E+01  0.000000000000E+00  1.732694650331E+01  2.901886226342E+00 -1.539428266537E+01  2.058258048171E+01 -7.436109370564E+00  5.506413717219E+00      187
 O   6.906283429209E+00  3.509235886079E+00  1.904239786938E+01  0.000000000000E+00 -4.789582444626E+00  9.986914832811E-01  3.611764310935E+00  5.651045752726E+00  1.309912133016E+00 -2.442133174267E+00      188
 Ca  1.160972141711E+01  3.826401659656E+00  2.160414418341E+01  0.000000000000E+00  1.965787638580E+00 -5.797918271242E-01 -1.385072823246E+00 -3.273547145252E+00 -7.443159739995E-01  6.478960874728E-01      190
 O   1.605829575629E+01  1.897833538801E+01  7.257209811630E+00  0.000000000000E+00  2.782832272718E+00 -2.214574111531E+01 -1.372530457066E+01 -8.468408130745E+00 -3.037048753745E+01  3.288862342664E+00      193
 O   4.396647421480E+00  1.217500280433E+01  1.226140012859E+01  0.000000000000E+00 -1.132734125357E+01  4.896377003727E-01  3.827124490044E+01  4.931123104283E-01  1.372316117602E+01 -3.136717555610E+01      194
 Si  1.810829322461E+01  1.606247004876E+00  1.974342918986E+01  0.000000000000E+00  9.641372648144E+01  7.587045928799E+00 -3.562823026275E+01  4.116760088689E+01 -3.267752701255E+01  1.060990638916E+01      196
 Si  1.659711049588E+01  4.081792171258E+00  1.936155410931E+01  0.000000000000E+00 -5.334865914840E+01  4.337358852572E+00  1.547301582480E+01  1.417451876264E+01  1.326377789194E+01 -1.309726424811E+01      197
 O   1.967273233125E+01  1.725193596907E+00  2.041841848802E+01  0.000000000000E+00  5.837425162891E+00  1.849873050892E+00 -8.361598234299E+00 -7.126150277077E+00 -8.056230408897E+00  2.345449832518E+00      202
 O   1.772220873775E+01  3.121879919755E+00  1.986099047379E+01  0.000000000000E+00  1.460584981483E+01  2.301088030592E+00  9.166251618446E+00 -1.812836895194E+00  8.179160286049E+00  3.106592574202E+00      205
 O   1.596051174886E+01  5.112555508128E+00  2.047013667200E+01  0.000000000000E+00 -1.403572373807E+01 -3.776231701987E+00 -3.173111937297E+01 -1.511963614320E+01 -2.474067035661E+01 -4.495997235976E+00      206
 Ca  1.439300404000E+01  5.362115082460E+00  1.849456352636E+01  0.000000000000E+00 -1.301620400311E+01 -2.925350083546E+00  1.526177704990E+01 -1.008987538032E+01  1.187715613962E+01 -4.849188092180E+00      209
 O   2.263069786073E+01  1.874733838151E+01  1.505491641520E+01  0.000000000000E+00 -1.456155083573E+00  2.696551822270E+01 -3.299700724242E+01  2.165446713949E+01 -4.960142458564E+01 -1.206283264249E+00      210
 O   1.387592504850E+01  1.720770125342E+01  4.319924070559E+00  0.000000000000E+00  9.730807946885E+00 -2.823900884005E+00  7.307245862360E-01 -6.087324148721E-01  1.264559263202E+00  1.206729176752E+01      212
 Si  1.424208250703E+01  3.887856891789E+00  1.516554658157E+01  0.000000000000E+00  2.362496720425E+01 -3.576620756013E+00  4.654012808357E+00 -1.146512188939E+01  4.370619551949E+00  6.303200826933E+00      213
 Si  1.153173147523E+01  4.869052023149E+00  1.641189896118E+01  0.000000000000E+00 -1.428219926223E+01 -2.686548231312E+00 -2.844639573910E+01 -9.055429664131E+00 -1.998770513255E+01 -6.030384193576E+00      214
 Si  9.902413608900E+00  6.314749881206E+00  1.402775545056E+01  0.000000000000E+00  1.955060814055E+01 -6.106634935746E+00  1.522257840666E+01 -1.356544330590E+01  1.074585796053E+01  1.246738475174E+01      215
 O   1.267214955748E+01  4.263139365632E+00  1.534510665645E+01  0.000000000000E+00 -8.731029932707E+00 -2.741027447231E+00  7.065869658207E+00 -9.886228887040E+00  5.835069059284E+00 -2.938070904060E+00      216
 O   1.514052297513E+01  3.642885767159E+00  1.658186697086E+01  0.000000000000E+00 -1.116904758683E+01  8.150515833958E+00 -1.178763841803E+01  3.481908431261E+01 -1.076302268040E+01 -2.492501320873E+00      217
 O   1.484208850671E+01  5.134767307571E+00  1.422171113764E+01  0.000000000000E+00 -4.792896933057E-01 -7.635590518640E+00  1.066619519450E+01 -2.114821494662E+01  1.113147437566E+01 -1.658150095878E-01      218
 O   1.454774195036E+01  2.277718179080E+00  1.487608778906E+01  0.000000000000E+00 -9.849881307438E+00  5.509996738010E+00 -9.901938099184E+00  7.264482830704E+00 -9.683381969640E+00 -1.436173823929E+00      219
 O   1.235130541690E+01  5.992045114249E+00  1.727821620811E+01  0.000000000000E+00  7.438954789067E+00  3.534536079684E+00 -1.056206837710E+00  1.019192569744E+01 -7.550277805788E-01  3.608894055680E+00      220
 O   1.044295694588E+01  5.566254011687E+00  1.549750360921E+01  0.000000000000E+00 -1.489491947116E+01  6.993637226777E+00 -3.744586511732E+01  1.947160836281E+01 -2.523280955967E+01 -7.939217377774E+00      222
 O   1.128498676065E+01  6.900438764239E+00  1.337446543837E+01  0.000000000000E+00 -1.425057744977E+01 -2.325758067942E+00  3.066204006028E+00 -4.507796092462E+00  2.587174177010E+00 -8.713810581516E+00      223
 O   2.138762753687E+01  2.146166737585E+01  1.319625120126E+01  0.000000000000E+00  1.320038723622E+01 -2.460846939513E+01 -7.274146090970E+00 -1.513114233529E+01 -1.178946390681E+01  1.324608442932E+01      224
 Ca  1.562929583405E+01  7.806591707705E+00  5.814011800983E+00  0.000000000000E+00 -5.123307949920E+00  2.192288590272E+00  3.793063475800E+00  1.632721706506E+00  1.019655845394E+01 -2.559013136775E+00      225
 Ca  1.693277153512E+01  4.763977098603E+00  1.552701144747E+01  0.000000000000E+00  5.623600075355E+00 -2.721339672804E+00 -3.297424117937E+00 -8.869537232760E+00 -3.595961105092E+00  1.582180561235E+00      226
 Si  2.116521953221E+01  2.365312538396E+00  2.035259175470E+01  0.000000000000E+00 -1.579682040785E+01 -4.097695963683E+00  5.443381886635E+01 -5.345963562980E+01  5.660722428714E+01 -1.344697154822E+00      228
 Si  2.256410697931E+01  4.677830149335E+00  2.144686944367E+01  0.000000000000E+00  1.110107887447E+01  8.121915384668E+00  3.942824773427E+01  3.723727739714E+01  4.148219404327E+01  2.301396704808E+00      229
 O   2.215758038431E+01  1.063168500929E+00  2.080776478757E+01  0.000000000000E+00  1.366079384040E+01  4.834146964207E+00  9.604861092236E+00 -7.544928052369E+00  1.022793576840E+01  4.053569153094E+00      230
 O   2.126022196353E+01  3.670611032352E+00  2.136149102615E+01  0.000000000000E+00 -1.099602181221E+01  1.477148771911E+00  3.073392259797E+01  8.677654223218E+00  3.058822136727E+01 -1.911480834984E+00      236
 O   2.309620087692E+01  4.439970930086E+00  2.312071397087E+01  0.000000000000E+00  1.290494147462E+01  3.277112676345E-01 -6.675677222666E+00  1.503373713837E+00 -6.668599521556E+00  2.479225024666E+00      237
 H   1.293403106990E+01  1.692806958946E+01  4.462642070409E+00  0.000000000000E+00  7.279202050018E+00 -2.731803534845E+00 -1.479698926288E+00 -7.180629201377E-01 -4.313742977902E+00  9.527025116334E+00      243
 H   1.883613023702E+01  1.779373928826E+01  7.220309163505E+00  0.000000000000E+00 -5.681480593136E+00  3.920481848951E+00 -4.403379059168E+00  1.590845553077E+00 -1.148740581092E+01 -5.367067607490E+00      247
 H   1.311689801479E+01  7.540751666383E+00  7.772991651306E+00  0.000000000000E+00  2.441991743342E+01  1.078692772936E+01  3.886758520385E+00  1.111914340813E+01  6.558892303896E+00  1.403872568586E+01      248
 H   5.724967822980E+00  1.105412232117E+01  1.023819900639E+01  0.000000000000E+00  1.519269752600E+00 -4.549308725812E-01 -1.447786092561E+00 -4.213516616074E-01 -8.095690256944E-01  2.933500100504E+00      249