     8448
Lattice="     49.70      0.00      0.00      0.00     49.70      0.00      0.00      0.00     49.70" pbc="T T T" config_type=md Properties=species:S:1:pos:R:3:charge:R:1:forces:R:3:id:I:1
 Si  1.070628901955E+01  1.749439267310E+01  1.579675392750E+01  0.000000000000E+00  8.026278441803E+00  2.919516588850E+01  6.941863202864E+00  2.636209556004E+01  4.704864944095E+00  1.311517618366E+01        1
 Si  1.261612817190E+01  1.996691295849E+01  1.675173473728E+01  0.000000000000E+00 -2.847813520421E+01  6.183114806209E+01 -9.106772580039E+00  5.187476867309E+01 -6.858526111117E+00 -4.507091550552E+01        2
 Si  1.083575441960E+01  2.259100554433E+01  1.787461612035E+01  0.000000000000E+00  2.078549159302E+01  8.665081870629E+00  6.491009639748E+00  6.856047721512E+00  3.934908918772E+00  4.333479125090E+01        3
 O   1.137969787125E+01  1.902562172480E+01  1.660731352080E+01  0.000000000000E+00 -1.240587199390E+01 -6.983109582960E+01 -1.581497658859E+01 -6.095500681757E+01 -1.083677111253E+01 -2.074127366058E+01        4
 O   9.645687057322E+00  1.842872846674E+01  1.505380927078E+01  0.000000000000E+00 -1.032214014962E+01 -1.091743714197E+01 -5.805256274262E+00 -8.918087688876E+00 -3.719702056926E+00 -1.972113721735E+01        5
 O   1.166749663266E+01  1.691824893086E+01  1.465429476981E+01  0.000000000000E+00  8.672238380227E+00 -5.357823579878E+00 -2.448075117901E-01 -4.640854167890E+00 -1.949115166800E-01  1.257502721653E+01        6
 O   9.995495350716E+00  1.653973487071E+01  1.692195636920E+01  0.000000000000E+00  5.257127946666E+00  1.183536918177E+01  4.221246839558E+01  1.210887613815E+01  2.493414605170E+01  8.699068867359E+00        7
 O   1.342596919239E+01  2.058000318980E+01  1.551117702315E+01  0.000000000000E+00  2.034826080915E+01 -2.319814774776E+01 -7.159514698289E+00 -1.748447621733E+01 -6.197042534443E+00  3.119084114958E+01        8
 O   1.355597061485E+01  1.969024846758E+01  1.793117216908E+01  0.000000000000E+00  4.615746224464E+01 -2.847959369266E+01  4.061841189448E+01 -2.593529983379E+01  3.070752948394E+01  6.704439881525E+01        9
 O   1.176738530841E+01  2.122147542985E+01  1.762291580299E+01  0.000000000000E+00 -2.152775217669E+01  4.762147973687E+01 -6.550741272593E+00  3.954622903534E+01 -4.374139754852E+00 -3.882346433843E+01       11
 O   2.016875407807E+01  1.778419397701E+01  2.173252950869E+01  0.000000000000E+00 -1.365834788104E+01  3.975196446228E+00 -2.450930265490E+01  4.857744701962E+00 -2.274572307260E+01 -1.204351578593E+01       13
 Ca  3.266546084843E+00  1.539803063894E+01  1.701105599693E+01  0.000000000000E+00  1.978566875460E+00  5.903223842677E-01  2.221058252905E+01  6.521617842236E-01  4.264984573295E+00  9.326681019709E+00       14
 Ca  2.202456919436E+01  1.317605879889E+01  1.783691862232E+01  0.000000000000E+00 -9.654568188458E+00 -4.771562126416E+00  7.598645094647E+00 -6.459440311347E+00  9.382611885720E+00 -5.775784171144E+00       15
 O   6.492097229295E+00  5.056196327021E+00  1.653493269499E+01  0.000000000000E+00 -3.226961932005E+01  1.358493888173E+00  2.518423605548E+01  4.442589558371E+00  9.888066201036E+00 -2.513233011116E+01       16
 O   9.745048452554E+00  1.609477073168E+01  2.029095553971E+01  0.000000000000E+00 -5.423509386229E+00  1.350631365242E+01 -3.001999574476E+00  1.702764297768E+01 -1.441757203132E+00 -8.957383901933E+00       18
 Si  2.057880059395E+01  2.005425952752E+01  1.801721081883E+01  0.000000000000E+00 -4.433966530103E+01 -9.480208431842E+00 -1.015368774933E+01 -8.517238628960E+00 -1.159728426269E+01 -4.320947429615E+01       19
 Si  1.813285368289E+01  2.165561260016E+01  1.860060662781E+01  0.000000000000E+00  8.038919103100E+00  1.964856284608E+01 -4.447824732706E+01  1.687669589634E+01 -4.335974449602E+01  9.600679565680E+00       20
 O   1.895908655001E+01  2.028097413444E+01  1.867576052531E+01  0.000000000000E+00  1.899751124965E+01  1.620012185946E+01 -8.554868791302E+00  1.491790257817E+01 -8.684652901739E+00  2.032207792589E+01       22
 O   2.174098201354E+01  2.120101502611E+01  1.792060165335E+01  0.000000000000E+00 -2.940456718038E+01 -3.988146024121E+01  1.182261940129E+00 -3.371063892255E+01  1.434300927661E+00 -2.867426458653E+01       23
 O   2.018906279172E+01  1.955208429740E+01  1.646337788127E+01  0.000000000000E+00  3.082913462206E+01 -6.904010890092E+00  1.173253891901E+01 -5.813361811002E+00  1.438762850798E+01  2.985645471338E+01       24
 O   2.085731053354E+01  1.889533156054E+01  1.912528626773E+01  0.000000000000E+00  2.287254117655E+01 -9.120983761961E+00  8.928307747736E+00 -9.231985420944E+00  9.736873196388E+00  2.072099604924E+01       25
 O   1.845134545068E+01  2.254511777782E+01  1.996018243822E+01  0.000000000000E+00 -1.456650129211E+01 -9.709978062711E-01 -1.536687540671E+01 -8.596669820619E-01 -1.420525726678E+01 -1.779834907536E+01       26
 O   2.232118535296E+01  1.730657994881E+01  2.082633507513E+01  0.000000000000E+00  8.288481031127E-02 -3.008275310885E+00 -9.645969281463E+00 -3.620088417703E+00 -1.033832728917E+01  6.426417654399E-02       27
 O   1.897253409266E+01  2.245039270323E+01  1.711482967742E+01  0.000000000000E+00 -1.360335020289E+01 -1.894194979605E+01  2.887593881544E+01 -1.444020373287E+01  3.201023579898E+01 -1.609698275638E+01       29
 Ca  4.848698306218E+00  1.085580464795E+01  1.446608648555E+01  0.000000000000E+00  2.439545032863E+00 -1.121340941503E+00 -5.981630348884E+00 -1.494261877920E+00 -2.004904434245E+00  5.461924548423E+00       32
 Si  1.276999182918E+01  1.868980128559E+01  1.193285343847E+01  0.000000000000E+00 -1.865952117999E+01 -4.057974729843E+01  7.168019788350E+00 -2.590889917356E+01  7.670885643625E+00 -2.730955098510E+01       37
 Si  1.276020922184E+01  2.107766624884E+01  1.400859216691E+01  0.000000000000E+00  2.380096042617E+01  3.065314707278E+01  2.940937290763E+01  2.037262716401E+01  2.678854141181E+01  3.931508422338E+01       38
 O   1.245651062821E+01  1.976591221534E+01  1.321174794340E+01  0.000000000000E+00 -1.157228349708E+01 -1.740730150156E+01 -2.038536145844E+01 -1.163522721885E+01 -1.922005118133E+01 -1.836282620081E+01       40
 O   1.386519933191E+01  1.774764029300E+01  1.267333764530E+01  0.000000000000E+00 -6.492204886418E+00 -5.522653503706E+00 -1.064963631576E+00 -3.943648360851E+00 -1.165117938645E+00 -8.310108947903E+00       41
 O   1.341268312832E+01  1.927384550945E+01  1.058893314009E+01  0.000000000000E+00 -1.245682850361E+01 -4.363991858490E+00 -8.414266805345E+00 -2.397550503908E+00 -1.065809868891E+01 -1.790029525184E+01       42
 O   1.118803002304E+01  1.793755945763E+01  1.142780928443E+01  0.000000000000E+00  3.948028312072E+01  3.319923344297E+01  1.068901164126E+01  2.115084323884E+01  1.046473389453E+01  6.329800013261E+01       43
 O   1.360643820185E+01  2.238165882742E+01  1.344677535627E+01  0.000000000000E+00 -1.588952627563E+01 -4.048907984792E+01 -1.569064744899E+01 -2.432561256050E+01 -1.587695333679E+01 -2.613718232167E+01       44
 O   1.164081831399E+01  2.183912705452E+01  1.479880434808E+01  0.000000000000E+00 -2.986643556215E+01  8.479849948011E+00  7.104732185122E+00  5.746183900499E+00  5.588620174394E+00 -5.603187536426E+01       46
 O   8.999705871604E+00  2.121708503240E+01  1.545753228191E+01  0.000000000000E+00 -4.517025465053E+00 -1.996222923318E+01  5.204110716428E+00 -1.454331744061E+01  3.029944554987E+00 -1.064902728521E+01       47
 O   1.651106843596E+01  1.529962174294E+01  1.010265359307E+01  0.000000000000E+00  2.292538979430E+01 -2.406374634178E+00 -3.021857057760E+00 -1.588978456639E+00 -4.938711223219E+00  2.124331284329E+01       48
 Ca  7.599181090654E+00  2.152843842644E+01  1.328182799655E+01  0.000000000000E+00  5.284359838743E+00 -9.482404845585E+00  4.700951483485E+00 -5.850107084310E+00  2.689643445968E+00  1.497056249278E+01       49
 Si  2.061919740886E+01  2.085982903119E+01  2.324851036846E+01  0.000000000000E+00  6.418633661716E+01 -5.937605326259E+01  3.301545069758E+01 -6.617526863954E+01  2.928153609357E+01  6.493540856236E+01       51
 Si  1.938394631355E+01  2.288518952936E+01  2.118724586458E+01  0.000000000000E+00  7.323806096959E+01 -1.453436186557E+01  3.918628354564E+00 -1.345599947667E+01  3.585104082575E+00  8.646675341230E+01       52
 O   1.962286709271E+01  2.169031342507E+01  2.237616781796E+01  0.000000000000E+00 -2.566928492014E+01  1.521340937628E+01 -3.373215214040E+01  1.569446206772E+01 -2.958154155739E+01 -2.837377599740E+01       54
 O   1.985873082821E+01  1.948808919111E+01  2.391171636636E+01  0.000000000000E+00  8.493707860323E+00  1.526034456124E+01  9.764064109412E+00  1.872431038378E+01  8.109075817369E+00  8.335182030368E+00       55
 O   2.197133926639E+01  2.016474983478E+01  2.242367574853E+01  0.000000000000E+00 -3.408621955739E+01  2.040095185072E+01  1.202001642012E+01  2.268633794170E+01  1.177754538175E+01 -3.128348626612E+01       56
 O   2.139117237686E+01  2.175892127290E+01  2.442669024662E+01  0.000000000000E+00 -7.846267194982E+00 -4.487912038661E+00 -1.154645134207E+01 -5.038155883168E+00 -1.011156765430E+01 -7.981157235049E+00       57
 O   1.655803053133E+01  2.165226893992E+01  1.831789757131E+01  0.000000000000E+00  1.431718342228E+01  1.474986507355E+00  1.061810714058E+01  1.247843901983E+00  9.597986970620E+00  1.872200352179E+01       58
 O   1.659392023810E+01  1.687311096742E+01  1.334108843970E+01  0.000000000000E+00 -4.158145297700E+01 -7.431320832673E+01 -4.222630972638E+01 -5.875733801781E+01 -5.252195266645E+01 -4.228105596511E+01       59
 H   3.582491368099E+00  8.371782606624E+00  1.405995816342E+01  0.000000000000E+00 -2.673216712767E+00 -2.846491195202E+00  2.429088012163E+01 -4.780528711464E+00  6.189340490758E+00 -6.246934571558E+00       70
 H   1.322471246920E+01  1.969969776862E+01  1.884467971045E+01  0.000000000000E+00  2.201048757163E+00 -1.441325735161E+00  3.706992928367E+00 -1.378768454042E+00  2.601472476916E+00  3.278709869200E+00       73
 H   1.808731093860E+01  9.359245690083E+00  1.754994419768E+01  0.000000000000E+00  5.623567645091E+00  7.827805624921E+00  2.719151274322E+01  1.467827178137E+01  2.802409741807E+01  2.909904707442E+00       83
 Si  2.105968600789E+00  2.052411403691E+01  2.138032376106E+01  0.000000000000E+00  1.135790092671E+01  1.722862503519E+01 -2.352012196823E+01  1.794735600026E+01  1.785814416930E+00  8.939063544154E+00       89
 Si  3.084906476943E+00  2.041924657569E+01  1.840002500236E+01  0.000000000000E+00 -1.735036452248E-01 -2.833138548586E+01  1.404807786586E+01 -2.552974711183E+01  1.258494847293E+00 -1.340377959683E+01       90
 O   2.263793064431E+00  1.978015978161E+01  1.981652957715E+01  0.000000000000E+00  7.307358067640E+00  1.455011086559E+01 -5.190957957587E+00  1.457686416603E+01 -2.815251053459E+00  1.644940420374E+01       92
 O   1.032869804607E+00  1.971753672296E+01  2.221447817976E+01  0.000000000000E+00  4.854637628652E+01  9.144150542990E+00  9.481927397987E+00  1.030212523825E+01  3.524521949133E+00  9.520221545161E+00       95
 O   2.215094299376E+00  1.975492537096E+01  1.714220071006E+01  0.000000000000E+00  2.921099385811E+00  2.043089149178E+01  2.247160110281E+01  1.772876566531E+01  3.055777571304E+00  2.815074691246E+01       96
 O   4.646536441717E+00  1.996449764702E+01  1.845030107768E+01  0.000000000000E+00 -5.487293493887E+00  1.086902013946E+01 -1.653531658757E+00  1.004466516203E+01 -3.936002160029E-01 -2.331589588767E+01       97
 O   1.216243828081E+01  1.407565494512E+01  2.150261073066E+01  0.000000000000E+00 -2.470840346188E+01  3.758917468653E+00 -3.170048700892E+01  5.742293300899E+00 -1.793062347391E+01 -2.859516762547E+01       98
 O   3.537516137149E+00  1.228576632653E+01  2.023874952259E+01  0.000000000000E+00  6.262661348882E-01  3.949479209929E+00  3.650365414647E+01  6.506107828357E+00  6.427941691035E+00  1.668594267615E+00      101
 Ca  2.163899014217E+01  2.324683704824E+01  1.836858053826E+01  0.000000000000E+00  2.810789878774E+00  3.146913909524E+01  3.740320235910E+00  2.486546512719E+01  4.406260600532E+00  3.019640651408E+00      102
 O   1.557287174797E+01  4.294950581469E+00  1.186527671938E+01  0.000000000000E+00 -6.746388983239E+00  2.142846828747E+00 -4.852326920987E+01  5.919851720767E+00 -6.368554784428E+01 -1.860633527028E+00      105
 Si  5.425600308268E+00  1.556236842294E+01  2.020638803956E+01  0.000000000000E+00 -2.275221437312E+00 -2.597822759482E+00  1.779815169409E+01 -3.373047939074E+00  4.778966786592E+00 -6.526067575835E+00      107
 Si  8.398513941241E+00  1.673703135242E+01  2.101454586526E+01  0.000000000000E+00  6.035313576224E+00 -3.384487241211E+01  2.422441034628E+00 -4.249466997056E+01  9.681344023139E-01  1.202751263541E+01      108
 Si  7.267016393406E+00  1.949432966674E+01  2.051150452135E+01  0.000000000000E+00  3.891097805911E-01 -1.099444657905E+01 -1.834531849430E+01 -1.156811465545E+01 -6.499558825711E+00  1.043816874595E+00      109
 O   6.989187367153E+00  1.615691233881E+01  2.021651231533E+01  0.000000000000E+00  1.990806709485E+00  4.554715743762E+00  1.566621078497E+01  5.699137619591E+00  5.416071813061E+00  4.602150121176E+00      110
 O   4.535590438705E+00  1.597505265597E+01  1.893302129292E+01  0.000000000000E+00  6.110518999518E+00  1.088447441826E+01 -1.099916621570E+01  1.289986270224E+01 -2.634957852201E+00  2.152219520078E+01      111
 O   4.482761662112E+00  1.617801135917E+01  2.149325093907E+01  0.000000000000E+00  7.281674688644E+00  6.484308785942E+00 -2.403456422298E+01  8.614709979401E+00 -5.012793242390E+00  2.627911647016E+01      112
 O   5.666267536318E+00  1.385249850559E+01  2.023977646524E+01  0.000000000000E+00 -7.043521965862E-01  2.448890391391E+01  8.557586284776E+00  3.578054463577E+01  2.395756368057E+00 -1.721951476538E+00      113
 O   8.879436753029E+00  1.608524160628E+01  2.260417771531E+01  0.000000000000E+00 -2.709127478574E+00  9.985376966889E+00 -7.091327388230E+01  1.403219429578E+01 -2.785635196815E+01 -4.907627729902E+00      114
 O   1.073853282924E+01  1.350128322431E+01  3.696390430398E+01  0.000000000000E+00  1.330413544196E+01  9.612384304704E+00  4.100916675083E+01  2.631685060369E+01  1.191373832786E+01  1.672694990206E+01      115
 O   8.225679389072E+00  1.831061770240E+01  2.122923542533E+01  0.000000000000E+00 -5.869021942085E+00  5.224763864191E+00  1.457452458446E+01  6.057564191300E+00  5.647182485757E+00 -1.306462505836E+01      117
 O   5.732708385394E+00  1.986268933156E+01  2.100783514596E+01  0.000000000000E+00  1.270585182805E+01 -1.727568796036E+01 -5.492135134097E+00 -1.827168509994E+01 -1.498717450809E+00  4.402323833468E+01      118
 O   6.440788746342E+00  9.611826700021E+00  2.228795471494E+01  0.000000000000E+00  9.484507306879E+00 -3.431577899130E+00 -1.272577606157E+01 -7.957161027095E+00 -3.677503669321E+00  1.415408021581E+01      119
 Ca  2.385121425016E+01  1.927117851679E+01  2.108009178627E+01  0.000000000000E+00 -2.486256834580E+01 -1.556154336600E+01  1.137182994852E+01 -1.702224709327E+01  1.286673489226E+01 -2.008832707436E+01      120
 Ca  3.306742626551E+00  1.180158139615E+01  1.824908421342E+01  0.000000000000E+00 -4.855414725017E+00  5.998749515514E+00 -1.496740553446E+01  9.276018307130E+00 -2.179233993303E+00 -1.140777881116E+01      121
 Si  9.674426014023E-01  1.707835347773E+01  1.467155400521E+01  0.000000000000E+00 -2.481794044896E+02 -7.097996846656E-01 -3.564550565781E+01 -6.097698129993E-01 -9.331442569784E+01 -3.888997525383E+01      125
 Si  2.743071434319E+00  1.881867666301E+01  1.593788628933E+01  0.000000000000E+00  8.014101501474E+00  8.563850174119E+00 -6.093582212095E+00  7.252883543199E+00 -2.020953133878E+00  6.744265740548E+01      126
 Si  3.510195945799E+00  2.063383997225E+01  1.326230691061E+01  0.000000000000E+00  1.062269372135E+01 -3.138316891271E+01 -4.351465270755E+01 -2.017138925705E+01 -1.062421987826E+01  4.702415293267E+01      127
 O   1.298533507204E+00  1.830377099221E+01  1.566927159545E+01  0.000000000000E+00  1.948184573908E+01 -1.977983146295E+01 -1.618645363658E+01 -1.693287964743E+01  1.947606002618E+01 -4.729256485383E+01      128
 O   1.963608178480E+00  1.689247076224E+01  1.341539539859E+01  0.000000000000E+00  3.065056680643E+01  6.318473988318E+00  1.134125560173E+00  5.017905791405E+00 -3.191845244188E+00  7.366083670056E+00      129
 O   7.538480758146E-01  1.555000952985E+01  1.530128702259E+01  0.000000000000E+00  1.468929098370E+01  1.787390823609E+01  2.947533096879E+01  1.758801495336E+01  1.757810350959E+01 -9.813206426733E+00      131
 O   3.668065318078E+00  1.739994715342E+01  1.617528690464E+01  0.000000000000E+00  2.140638764455E-01  5.084685266288E+01 -6.842194279767E+00  4.726809930905E+01 -1.764560498978E+00  2.964568787757E+00      132
 O   2.886466283264E+00  3.941015413407E+00  8.031642776016E+00  0.000000000000E+00 -9.611993966462E-01  2.708892255977E+00 -8.283802032120E+00  5.794407688558E+00 -3.363465750491E+00 -3.532320063097E+00      133
 O   3.537333637287E+00  1.993569123114E+01  1.470636124420E+01  0.000000000000E+00 -4.912951885765E+00 -3.917867864283E+01  3.830640225004E+01 -2.890172176684E+01  9.436792257198E+00 -3.174752891493E+01      134
 O   2.323996219923E+00  2.092476409855E+01  1.215366783433E+01  0.000000000000E+00 -1.060723361498E+01 -1.040021030654E+01  3.550630559632E+00 -6.040722890707E+00 -5.654248639559E+00 -2.399415873223E+01      135
 O   8.531501621119E+00  1.583871634331E+01  1.242411532669E+01  0.000000000000E+00  8.843592818307E+00  1.894428450572E+00  3.926717097073E+00  1.486016735063E+00  2.696432896706E+00  1.641811305036E+01      136
 Si  9.408052107002E+00  1.401563620312E+01  2.582755177814E+01  0.000000000000E+00 -2.222295619766E+01 -1.450991555628E+01 -5.350182285677E+00 -2.673839345536E+01 -1.948879791549E+00 -3.310662673652E+01      139
 Si  8.933548708018E+00  1.666604803596E+01  2.407504639697E+01  0.000000000000E+00 -2.171130350767E+01 -1.756799773792E+01  7.151417894653E+01 -2.537796361380E+01  2.653682947889E+01 -4.050368325157E+01      140
 O   8.813853884920E+00  1.514708252373E+01  2.489156058892E+01  0.000000000000E+00  1.011754567617E+00 -2.378004911956E+00 -1.335287364127E-03 -3.907831970543E+00 -4.728119669216E-04  1.738754707027E+00      142
 O   8.308595141018E+00  1.264084996740E+01  2.568515620153E+01  0.000000000000E+00 -5.206408603517E+00 -7.851632859239E+00  8.346199619062E+00 -1.595386520263E+01  2.699815919234E+00 -7.921126124095E+00      143
 O   7.489558933183E+00  1.725961414187E+01  2.453457137769E+01  0.000000000000E+00 -8.743980735918E+00  4.430609461990E+01  1.867812160300E+01  6.298119019252E+01  5.701786689212E+00 -2.015041672177E+01      148
 O   1.306014114317E+01  1.600555769071E+01  1.353111539863E+00  0.000000000000E+00  9.990698745001E+00  1.102773401625E+01  5.551981531740E+01 -2.459027235388E+01  1.552437441289E-01  1.224387266422E+01      150
 Ca  5.313043068944E+00  1.134034435931E+01  7.913765326269E+00  0.000000000000E+00  1.737186116387E+00 -7.577462141093E-01  1.158205587712E+00 -5.287869155759E-01  7.775813303153E-01  3.707910611756E+00      151
 Ca  1.252705765591E+01  2.195978665303E+01  1.186158821495E+00  0.000000000000E+00  6.885233717550E+00 -2.035707352837E+01 -5.130590595733E+01 -1.132358813749E+01  1.016679807845E+01  1.206973478104E+01      152
 H   8.010701519575E+00  1.865110908087E+01  1.555894074752E+01  0.000000000000E+00 -1.923472969769E+01 -1.209013425882E+01  2.298225256921E+01 -1.008571027851E+01  1.183267990842E+01 -4.478372347990E+01      155
 H   1.014304666867E+01  1.302919511396E+01  3.638947394464E+01  0.000000000000E+00 -1.334867729867E+01 -3.308886799592E+00 -4.096507091225E+01 -9.241449600403E+00 -1.141842904024E+01 -1.714697040435E+01      156
 H   1.659890809025E+01  1.764100665149E+01  1.379646868995E+01  0.000000000000E+00  3.395638799066E+00  7.954535680842E+01  3.712815221878E+01  6.220988667592E+01  4.466989344087E+01  3.608820912476E+00      159
 H   1.607737969699E+01  4.172877719076E+00  1.263053460966E+01  0.000000000000E+00  1.613347778903E+01 -1.731104503312E+00  3.344353868852E+01 -5.239735456915E+00  4.257020676663E+01  4.187437957299E+00      160
 H   1.568359926607E+01  1.536753047678E+01  1.968618604582E+01  0.000000000000E+00  2.910529497450E+01  2.164300613052E+01 -9.985762938402E+00  2.772522533272E+01 -7.955461963399E+00  2.851874113641E+01      164
 H   1.923527438860E+01  6.201469191769E+00  4.758860686269E+00  0.000000000000E+00 -5.343682355005E+01 -9.542808971028E+00 -1.805544037832E+01 -7.322925752671E+00 -7.297993632932E+01 -1.722807838645E+01      168
 H   6.541883458349E+00  2.109944319259E+01  3.220933311930E+01  0.000000000000E+00 -1.738481708480E+01  3.367240158745E+01  5.411165892333E+01  5.140256971511E+01  1.099036000228E+01 -5.607100200268E+01      169
 Si  1.208878309004E+01  9.583904499001E-01  1.976241079297E+01  0.000000000000E+00 -1.198369806459E+01 -1.812141724577E+02 -5.146152918600E+01 -3.429081029240E+00 -3.147932053070E+01 -2.295647672408E+01      177
 Si  1.066879851396E+01  3.377638591982E+00  1.904024885345E+01  0.000000000000E+00  3.163855032385E+01  1.015343050569E+01 -2.252166771572E+01  5.565433403583E+01 -1.261953753372E+01  9.627960214512E+00      178
 Si  7.975584566375E+00  4.234260122461E+00  2.021735159058E+01  0.000000000000E+00 -4.005263550024E+00  7.818136696641E+00 -3.717898550491E+01  3.749514200745E+01 -1.466681437764E+01 -2.140473441788E+00      179
 O   1.127623234521E+01  2.013300552092E+00  1.857183805607E+01  0.000000000000E+00  5.414921798306E+00 -2.234504419636E+00  2.803987985610E+01 -7.031453151222E+01  1.702492770153E+01  4.752958172227E+00      180
 O   1.192416512224E+01  1.073944098258E+00  2.130608723307E+01  0.000000000000E+00 -5.226995177686E+00  4.535922545007E+00  3.411318272957E+01  1.261259693111E+01  1.909178439302E+01  3.380035869104E+00      182
 O   1.134535466331E+01  4.325010370077E+00  1.766505988722E+01  0.000000000000E+00 -7.620943413283E+00 -1.416688736926E-01 -6.882286448893E+00 -3.389730185354E-01 -4.420136764649E+00 -2.919929186388E+00      184
 O   1.173451647563E+01  3.949683557836E+00  2.014507637663E+01  0.000000000000E+00 -3.610168132063E+00  2.038150991256E+00  1.593884421012E+00  9.130489983919E+00  9.284384257941E-01 -1.245638904323E+00      185
 O   9.137350300037E+00  3.700887786839E+00  1.921730972880E+01  0.000000000000E+00  1.245833618584E+00 -1.778411092877E+00 -2.210579129286E+01 -8.885902373722E+00 -1.051075106521E+01  4.894921075972E-01      187
 O   6.707602614118E+00  4.671844730603E+00  1.936072283555E+01  0.000000000000E+00  8.125808766150E-01  1.993647861162E+00  7.303347792698E+00  8.679238927201E+00  2.530275091598E+00  5.566217543535E-01      188
 Ca  1.126054168347E+01  4.043437515964E+00  2.216616911937E+01  0.000000000000E+00  1.164500667614E+00 -7.324343194300E-01  2.141192660202E+01 -4.015213028324E+00  1.087738213703E+01  4.181491280931E-01      190
 O   1.566842834017E+01  2.027086531008E+01  8.588321121676E+00  0.000000000000E+00 -1.540949775055E+01 -3.580788420702E+01 -1.405744635230E+01 -1.517101532438E+01 -2.564623372792E+01 -1.993587656757E+01      193
 O   5.588868558371E+00  1.262742635478E+01  1.297329359544E+01  0.000000000000E+00 -6.103364972250E+00 -1.495127641889E+00  1.732875966967E+01 -1.536079428690E+00  7.465194506000E+00 -1.378987372820E+01      194
 Si  1.810803900125E+01  1.360338148456E+00  1.976302963698E+01  0.000000000000E+00 -4.329662027201E+01 -1.321882743603E+02 -2.678462339349E+01  6.684042210729E+00 -2.454163222704E+01 -1.031792962189E+01      196
 Si  1.608349368990E+01  3.591035887988E+00  1.941085360200E+01  0.000000000000E+00 -4.037743141382E+01 -5.425635522296E+00  2.618690575591E+01 -3.901950327457E+01  2.169801195347E+01 -9.898561983195E+00      197
 O   1.948183045857E+01  2.188059642914E+00  1.981583942392E+01  0.000000000000E+00 -6.178960839056E+01 -8.689901998199E+00  7.046485469779E+00 -2.457145209607E+01  6.927712337298E+00 -1.326609025612E+01      202
 O   1.672818908379E+01  2.226413054362E+00  2.031496408417E+01  0.000000000000E+00  1.690423737210E+01 -6.814574959035E+00 -2.798086922430E+01  1.250379658358E+01 -2.304061524173E+01  7.529350140565E+00      205
 O   1.547284084279E+01  4.757108269695E+00  2.045610661162E+01  0.000000000000E+00 -1.631868534876E+01 -5.269439143511E+00 -8.645546256034E+00 -2.265918763923E+01 -6.539424327336E+00 -5.017162252998E+00      206
 Ca  1.377983864259E+01  5.439241039134E+00  1.894202697218E+01  0.000000000000E+00 -5.694485455501E+00 -3.838363361387E+00 -1.022877287469E+01 -1.336700870532E+01 -7.441169835309E+00 -2.247753387371E+00      209
 O   2.310104486524E+01  1.941028623203E+01  1.459330666779E+01  0.000000000000E+00  2.653614008993E+01  4.359316185987E+01 -1.174671273200E+01  3.277480672026E+01 -1.859491779475E+01  2.229657046439E+01      210
 O   1.327552943069E+01  1.728412828843E+01  3.959712835738E+00  0.000000000000E+00  9.078611016349E+00  2.209754699612E+01  3.523488656912E+00  5.035831306928E+00  9.134363161085E+00  1.181993368374E+01      212
 Si  1.297886005479E+01  3.857992406190E+00  1.444396824972E+01  0.000000000000E+00 -1.800792448719E+01 -2.923155875578E+00  2.427357464761E+01 -1.094402637706E+01  2.181141102875E+01 -5.352891982003E+00      213
 Si  1.129051472673E+01  5.397083803767E+00  1.643943497994E+01  0.000000000000E+00 -1.597788145950E+01  5.624048570661E+00  2.460310017622E+00  1.713076619950E+01  1.689727567898E+00 -7.637735509032E+00      214
 Si  9.154010478742E+00  6.555046741085E+00  1.458901317841E+01  0.000000000000E+00  2.739626658042E+01 -1.407944961282E+01 -3.630293143822E+01 -3.133544031940E+01 -2.277860817114E+01  1.961804701698E+01      215
 O   1.228935687604E+01  5.270684673428E+00  1.514198060120E+01  0.000000000000E+00 -8.568874317748E+00 -2.977798284557E+00  1.733066854209E+01 -8.554820986802E+00  1.406571413763E+01 -3.675036455582E+00      216
 O   1.403900079532E+01  3.191621154717E+00  1.544917823424E+01  0.000000000000E+00 -2.310698892901E-01 -9.415840015087E-01  6.927969221734E-01 -6.061209515896E+00  6.295594751978E-01  3.741812954944E-02      217
 O   1.356473931180E+01  4.592570525025E+00  1.322134642342E+01  0.000000000000E+00  3.818559573756E+00  3.051739563605E+00 -3.034235745532E+01  8.785516900531E+00 -3.113042770422E+01  1.292837535863E+00      218
 O   1.164293907339E+01  2.869528433148E+00  1.398450323336E+01  0.000000000000E+00  1.478887630663E+01  5.566035542684E+00 -8.606784125760E+00  2.918289676868E+01 -7.165664844998E+00  4.318589491340E+00      219
 O   1.180241995305E+01  6.782626394940E+00  1.730104742081E+01  0.000000000000E+00  3.392800662669E+00 -1.442573331210E+00 -9.768039218878E+00 -3.679699891753E+00 -6.663556152122E+00  1.949778047123E+00      220
 O   9.632171902404E+00  5.721650743684E+00  1.591121660492E+01  0.000000000000E+00  1.813003797389E+01 -5.183712684291E+00  5.104615232220E+00 -1.441527612087E+01  3.090180508081E+00  1.076950726247E+01      222
 O   1.031533961258E+01  6.483175243344E+00  1.337927278169E+01  0.000000000000E+00 -9.543771734975E+00  2.319741202107E+00  1.920296230185E+01  4.787229892912E+00  1.480536954013E+01 -5.998246006838E+00      223
 O   2.040272799803E+01  2.053696347819E+01  1.188447423561E+01  0.000000000000E+00  8.111899632696E+00 -5.900982758718E+00  7.470401929788E+00 -3.414822139370E+00  1.282484825057E+01  8.165270179140E+00      224
 Ca  1.566672065607E+01  6.409698131144E+00  6.016041066193E+00  0.000000000000E+00  5.414255382550E+00  2.869680840268E+00 -1.330651043322E+00  2.693436949555E+00 -3.465225379458E+00  2.215124873222E+00      225
 Ca  1.658430358051E+01  3.719728053351E+00  1.644158010850E+01  0.000000000000E+00 -5.734297710039E+00 -9.655156564781E-01 -3.233365449247E+00 -3.280459454457E-01 -3.261433137398E+00 -7.565131734692E-01      226
 Si  2.094993110474E+01  2.662815033581E+00  1.958876957046E+01  0.000000000000E+00  4.258051720105E+01  1.999605262517E+00  6.459133682091E+00  1.594586250360E+01  6.907958417164E+00  6.431872677516E+00      228
 Si  2.223155052821E+01  4.945870730148E+00  2.063015001815E+01  0.000000000000E+00  3.156797765815E+01  3.736680657079E+00  1.334407747016E+01  1.558639251438E+01  1.437990185575E+01  7.022953100427E+00      229
 O   2.178531493662E+01  1.552658212449E+00  2.038852473991E+01  0.000000000000E+00  4.659473070600E+01  1.372768736124E+01  2.408276118337E+01 -2.869123000606E+01  2.573263851191E+01  4.972520783622E+00      230
 O   2.074019517563E+01  4.184377252825E+00  2.041661978854E+01  0.000000000000E+00  3.951146857289E+01  8.209188308992E-01 -1.031294208995E+01  4.050828023660E+00 -1.047638806011E+01  7.966125207446E+00      236
 O   2.268349131474E+01  4.853690510375E+00  2.226134225601E+01  0.000000000000E+00  3.627098180898E+01  2.315552977654E+00  8.431870637218E+00  1.060744639807E+01  8.591766936907E+00  7.760921322173E+00      237
 H   1.251792644394E+01  1.779860181364E+01  4.342825642906E+00  0.000000000000E+00  2.459854256816E+00 -1.539497215927E+01  2.827145518656E+00 -3.800536233849E+00  8.598475233217E+00  3.497541436492E+00      243
 H   1.892382173176E+01  1.788292831245E+01  6.211088123994E+00  0.000000000000E+00  7.169091026658E+00  8.507222746262E+00 -1.006333923016E+01  2.954723591365E+00 -3.066078500514E+01  6.774759491628E+00      247
 H   1.245365665324E+01  6.258282428512E+00  5.372121057559E+00  0.000000000000E+00 -1.378141596258E+01  6.285557848414E+00  1.933584152539E+01  5.395534327777E+00  4.482436804359E+01 -6.925515594345E+00      248
 H   4.421243373208E+00  8.832584362396E+00  9.812644720566E+00  0.000000000000E+00  1.227283094855E+01 -6.793992015691E+00 -6.461072822296E+00 -7.547850906261E+00 -2.911139271100E+00  2.451817408999E+01      249