     8448
Lattice="     49.70      0.00      0.00      0.00     49.70      0.00      0.00      0.00     49.70" pbc="T T T" config_type=md Properties=species:S:1:pos:R:3:charge:R:1:forces:R:3:id:I:1
 Si  1.063779637559E+01  1.763133037749E+01  1.570349410061E+01  0.000000000000E+00 -8.312733865870E+00 -2.368013664460E+00  1.903961761349E+01 -2.109091476017E+00  1.289773944218E+01 -1.377771786134E+01        1
 Si  1.223350036163E+01  2.021449351383E+01  1.697953236028E+01  0.000000000000E+00 -6.576553319257E+00  4.622939900152E+01 -1.632075324554E+01  3.883122650615E+01 -1.175885981397E+01 -1.086702010755E+01        2
 Si  1.079489572577E+01  2.279912522309E+01  1.781891920594E+01  0.000000000000E+00  2.446460867274E+01 -5.917541743656E+01 -6.685896653776E+01 -4.624922982622E+01 -4.050389160905E+01  5.166994576263E+01        3
 O   1.124988778234E+01  1.908806707498E+01  1.643101157005E+01  0.000000000000E+00 -6.047842897575E+00  4.505118351813E+00 -2.393861400854E+00  3.878006687232E+00 -1.639014859874E+00 -1.026158065942E+01        4
 O   9.062653868672E+00  1.799731128632E+01  1.552540319589E+01  0.000000000000E+00  8.595284721750E-02  5.528289418806E+00 -6.393652950237E+00  4.768985813776E+00 -3.732171262370E+00  1.706917388367E-01        5
 O   1.149089512889E+01  1.712721446410E+01  1.448751281080E+01  0.000000000000E+00  1.021782965219E+01  6.254951331579E+00 -1.094651908560E+01  5.290918014554E+00 -8.682325564202E+00  1.522970646305E+01        6
 O   1.068777939502E+01  1.651975722853E+01  1.697273406382E+01  0.000000000000E+00 -2.354507171816E+01  2.380919998895E+01  1.984015745806E+01  2.446205559164E+01  1.249340414319E+01 -3.639286088685E+01        7
 O   1.271482592246E+01  2.124488832048E+01  1.565788196046E+01  0.000000000000E+00 -1.969185440489E+00 -2.025012975232E+01  2.484300700234E+01 -1.492472620062E+01  2.017351454194E+01 -3.290263273806E+00        8
 O   1.367499524037E+01  1.957166476869E+01  1.735691584563E+01  0.000000000000E+00  7.854825266170E-01  8.721852481991E+00  2.604081965441E+01  7.734879037483E+00  2.051678351134E+01  1.124183257280E+00        9
 O   1.175451497833E+01  2.141686960638E+01  1.815269972941E+01  0.000000000000E+00 -1.474986216636E+00 -2.562646579836E+01 -2.650813113927E+01 -2.172070649510E+01 -1.716495227535E+01 -2.687442870346E+00       11
 O   1.909731219243E+01  1.793623265798E+01  2.072800319424E+01  0.000000000000E+00 -9.651830566708E+00 -1.196509745713E+01  2.229958493171E+01 -1.382746215663E+01  2.054525615477E+01 -9.065017991823E+00       13
 Ca  2.199615389770E+00  1.656917808240E+01  1.764063013171E+01  0.000000000000E+00 -8.082769704146E+00  4.430214324656E+00  3.025080446059E+00  4.716695777957E+00  3.054971151117E+00  6.614290833475E+00       14
 Ca  2.103322251527E+01  1.370275921242E+01  1.891442580989E+01  0.000000000000E+00  9.627518663696E+00  1.473217346571E+01 -1.894826227984E+01  2.033536441208E+01 -2.107084935146E+01  6.272152066376E+00       15
 O   6.241998425909E+00  3.769518950055E+00  1.601314743036E+01  0.000000000000E+00  2.477591584895E+01 -2.630236819337E+00  5.348998693597E+01 -1.101906558842E+01  2.085064261778E+01  1.502386690038E+01       16
 O   9.359512093499E+00  1.595627010719E+01  1.966537207145E+01  0.000000000000E+00 -3.915223681576E+00 -5.260964749798E-01 -1.383365099975E+01 -6.483898089249E-01 -6.583970207073E+00 -6.674746073216E+00       18
 Si  2.033555573455E+01  1.981866572736E+01  1.803854503220E+01  0.000000000000E+00 -2.708256311201E+01  1.637660342356E+01 -1.818332461421E+01  1.490565017818E+01 -2.049877140710E+01 -2.639417738878E+01       19
 Si  1.797945883347E+01  2.152543480493E+01  1.840868849167E+01  0.000000000000E+00 -7.060192380878E+01 -5.797646429502E+01 -5.031993837996E+01 -4.958184030787E+01 -4.914664404337E+01 -8.452629871256E+01       20
 O   1.870180322754E+01  2.014181626016E+01  1.871260415978E+01  0.000000000000E+00  5.236931527183E+01 -4.676985494719E+01 -1.518508332891E+01 -4.345118488487E+01 -1.517631848492E+01  5.640168025734E+01       22
 O   2.134759339831E+01  2.111637610840E+01  1.801557036374E+01  0.000000000000E+00 -2.514253987131E+01 -1.056826311532E+01 -3.124231046654E+00 -9.016380784240E+00 -3.702065087020E+00 -2.487021924847E+01       23
 O   2.006252146519E+01  1.941901833990E+01  1.638415176655E+01  0.000000000000E+00  1.484151149738E+01  2.640519138167E+01  5.014794889592E+01  2.227850324098E+01  6.140655405877E+01  1.436547168109E+01       24
 O   2.107899753630E+01  1.878847927225E+01  1.903309960653E+01  0.000000000000E+00 -1.801717416165E+01 -3.237904232465E+01  2.303960410851E+01 -3.280060769151E+01  2.551616753342E+01 -1.605936443124E+01       25
 O   1.824778895353E+01  2.234112195590E+01  1.966260595362E+01  0.000000000000E+00  3.044974788540E+01  7.553454970869E+01  8.917092978987E+01  6.647858105506E+01  8.275466189138E+01  3.728021694938E+01       26
 O   2.157384414390E+01  1.730148622522E+01  2.121340668717E+01  0.000000000000E+00  4.090492886455E+01 -7.151614936562E+00  3.685209237403E+01 -8.768617571027E+00  3.747824708111E+01  3.280435598649E+01       27
 O   1.843902072001E+01  2.205226325620E+01  1.694108090559E+01  0.000000000000E+00  4.443707215464E+00  1.736440793982E+01 -1.373376490131E+01  1.333975730148E+01 -1.494811204730E+01  5.314479702414E+00       29
 Ca  4.548671353482E+00  1.053578408019E+01  1.436437731147E+01  0.000000000000E+00  1.425199654007E+00 -5.650028932494E+00  4.495664723398E+00 -7.703190079574E+00  1.423612099486E+00  3.301094904181E+00       32
 Si  1.341507543508E+01  1.988871032982E+01  1.229495256420E+01  0.000000000000E+00 -5.934393303465E+00 -2.938616622521E+01 -1.833465208025E+01 -1.816616129407E+01 -2.000501746130E+01 -8.798118949607E+00       37
 Si  1.240806546273E+01  2.200601292049E+01  1.432500620152E+01  0.000000000000E+00  6.630644141038E-01  5.347923269838E+01  1.354874552810E+00  3.481277334631E+01  1.173568228072E+00  1.175961241316E+00       38
 O   1.303988868459E+01  2.126099740617E+01  1.300777552931E+01  0.000000000000E+00 -1.506006593129E+01  7.511507824952E+01  2.720524932646E+01  4.595645529087E+01  2.727241272378E+01 -2.455481257907E+01       40
 O   1.381976373311E+01  1.891357088261E+01  1.354689710178E+01  0.000000000000E+00 -2.160757191747E+01 -4.410485582354E+01  1.373239281081E+01 -3.159022414323E+01  1.400899576558E+01 -2.957187626030E+01       41
 O   1.453697635944E+01  2.053736169476E+01  1.133733301858E+01  0.000000000000E+00  1.943469781650E+01 -2.369855498629E+01 -1.547703970427E+00 -1.308242090352E+01 -1.984499881289E+00  2.745670135363E+01       42
 O   1.219307737757E+01  1.941321743373E+01  1.136403142486E+01  0.000000000000E+00  5.398141697213E-01 -1.785545205017E+01  7.727934989990E+00 -1.045215296722E+01  8.291714953871E+00  8.594655414787E-01       43
 O   1.266886224588E+01  2.376699679845E+01  1.442328821484E+01  0.000000000000E+00 -1.951857913297E+01 -1.258440335538E+02 -1.036233891540E+01 -7.636996720518E+01 -9.101880397098E+00 -3.661717988248E+01       44
 O   1.076816700053E+01  2.214064121764E+01  1.396842826313E+01  0.000000000000E+00  6.462538293936E+00  3.033588594455E+00 -6.397545199958E+00  1.913877030252E+00 -4.931824383453E+00  1.328775284728E+01       46
 O   8.284247908269E+00  2.152352357808E+01  1.449515366367E+01  0.000000000000E+00  8.126272669711E+00  2.264797145556E+01  5.300759690371E+00  1.525242022886E+01  3.029482018342E+00  2.111308393292E+01       47
 O   1.742193592053E+01  1.603797684683E+01  1.010426200110E+01  0.000000000000E+00 -1.194607918440E-01 -1.024680937687E+01 -3.791790356848E+00 -6.455704956306E+00 -6.537867744710E+00 -1.099710974967E-01       48
 Ca  6.778530521130E+00  2.155210180091E+01  1.299726975809E+01  0.000000000000E+00 -1.895414075332E+00 -1.942548802831E+01 -3.641447466902E+00 -1.171478821040E+01 -1.899142147151E+00 -6.026403064660E+00       49
 Si  2.037658707427E+01  2.078777813049E+01  2.297182136483E+01  0.000000000000E+00 -5.565642105343E+00  3.940262955767E+00  3.879223623607E+01  4.354242006152E+00  3.440969555335E+01 -5.677954449286E+00       51
 Si  1.929197967287E+01  2.269580142806E+01  2.091667531168E+01  0.000000000000E+00 -2.176806920201E+01  1.227695728617E+01  2.447960031127E+01  1.131456539150E+01  2.257815568526E+01 -2.560876511683E+01       52
 O   1.907257709708E+01  2.174137708704E+01  2.238825989205E+01  0.000000000000E+00  1.634365090328E+01 -1.548578482221E+01 -3.630244509528E+01 -1.594654164932E+01 -3.092608296629E+01  1.863059593145E+01       54
 O   1.990461445843E+01  1.920357811516E+01  2.334960838242E+01  0.000000000000E+00 -2.728822611965E+00  6.047232710332E+00 -2.501634006216E-01  7.352823246630E+00 -2.132543706699E-01 -2.632714052349E+00       55
 O   2.188511997968E+01  2.066248734068E+01  2.247578289028E+01  0.000000000000E+00 -2.932984095724E+00 -1.632150973977E+01 -1.496871524474E+01 -1.775385041038E+01 -1.457533785017E+01 -2.769130203744E+00       56
 O   2.056066913262E+01  2.142664663631E+01  2.449759496860E+01  0.000000000000E+00 -8.850665796045E+00  3.858739080166E+00 -7.318919614563E+00  4.411788213057E+00 -6.142720736308E+00 -9.223439533253E+00       57
 O   1.628680986171E+01  2.130721805196E+01  1.857332958347E+01  0.000000000000E+00  2.784675769828E+01  1.500977736519E+01 -1.764741702376E+01  1.308390148814E+01 -1.547488425943E+01  3.643051913513E+01       58
 O   1.437326341026E+01  1.207259509538E+01  1.160502393740E+01  0.000000000000E+00 -7.553561994318E+00 -2.615881584818E+01  5.958280276774E-01 -2.514568588558E+01  7.379556677540E-01 -6.344494836165E+00       59
 H   3.587148393216E+00  7.416713525401E+00  1.574252746007E+01  0.000000000000E+00  1.442875035120E+00 -2.145892266092E+01 -2.318040950223E+01 -4.554816336050E+01 -5.281970694409E+00  2.983258459192E+00       70
 H   1.371113745096E+01  1.997964069315E+01  1.825978766395E+01  0.000000000000E+00  1.490959639660E+01 -1.715688846947E+01  1.901967016509E+00 -1.568001873697E+01  1.428172751540E+00  2.172601506981E+01       73
 H   1.654095428620E+01  1.341209408417E+01  1.503117875115E+01  0.000000000000E+00  4.222812711649E+00 -9.538404696922E+00  3.375448066255E+01 -1.068986431950E+01  3.714487937620E+01  3.424032278219E+00       83
 Si  2.142791759039E+00  2.052918006754E+01  2.126764895543E+01  0.000000000000E+00 -1.271775534048E+00  5.483738293316E+01  3.045231021101E+01  5.680997516805E+01  3.993372600739E+00 -2.775366712364E+01       89
 Si  2.458749699995E+00  2.079967104135E+01  1.818456921348E+01  0.000000000000E+00 -6.155262103988E+00  1.271886550251E+01 -2.415456904244E+01  1.111974749925E+01 -5.587223070277E+00 -9.252162406566E+00       90
 O   1.749714258061E+00  2.054051167680E+01  1.964578731601E+01  0.000000000000E+00  5.085983898979E+00  1.518151323546E+01  2.215324321880E+00  1.452022154325E+01  2.561375133779E+00 -2.432233808862E+01       92
 O   1.772335534326E+00  1.931794129895E+01  2.217929165878E+01  0.000000000000E+00  2.415067016301E+00 -3.336784055818E+01  1.171412532920E+01 -3.831024519180E+01 -3.762736303440E-01 -2.752877701917E-01       95
 O   1.493578194147E+00  1.985243431592E+01  1.716283352879E+01  0.000000000000E+00  1.036486915919E+01 -6.943531434885E+00 -4.787799102969E+00 -6.002824249281E+00  1.437561452313E+00  9.480308730026E+00       96
 O   3.945977050982E+00  2.036459208969E+01  1.839231263427E+01  0.000000000000E+00  3.391111768818E+00 -5.878038192675E+00  2.459520277677E+00 -5.308759224820E+00  5.140354866546E-01  1.914316439617E+01       97
 O   1.155493836377E+01  1.527879303148E+01  2.070748820608E+01  0.000000000000E+00  1.079617499468E+01 -1.149248784567E+00  2.421963639681E+00 -1.557587409113E+00  1.351474418205E+00  1.427550005741E+01       98
 O   3.567484623435E+00  1.222236250184E+01  2.018606347008E+01  0.000000000000E+00  1.523040944899E+00 -1.549697736834E+00  4.351162085135E+00 -2.559431277746E+00  7.779850431974E-01  6.340444147652E+00      101
 Ca  2.164761384951E+01  2.336210483343E+01  1.846058116698E+01  0.000000000000E+00  1.579047353212E+00  9.502329249365E+00  1.806119582673E+00  7.508677905264E+00  2.117927866847E+00  1.704107901182E+00      102
 O   1.671642216364E+01  3.815448808928E+00  1.083587216138E+01  0.000000000000E+00 -2.335938122805E+01 -9.747089257217E+00 -2.817869704697E+01 -2.768172721638E+01 -4.347107356406E+01 -5.331674589897E+00      105
 Si  5.254398444240E+00  1.599810211127E+01  1.949729561192E+01  0.000000000000E+00 -1.524891044166E+01 -2.111388544333E+00 -3.884217563153E+00 -2.573203140858E+00 -1.046772184571E+00 -4.642845968385E+01      107
 Si  7.987821195432E+00  1.664133304332E+01  2.019203905401E+01  0.000000000000E+00  3.331663471202E+01  2.820372759479E+01  3.647805384489E+01  3.422146336356E+01  1.443044810338E+01  6.940981784147E+01      108
 Si  7.788564959757E+00  1.976839061689E+01  1.964251189705E+01  0.000000000000E+00 -6.492904627311E+00  1.072126045926E+01 -8.443901221220E+00  1.065299093911E+01 -3.348139663599E+00 -1.647983621811E+01      109
 O   6.785254424554E+00  1.628292805728E+01  1.927078489347E+01  0.000000000000E+00  1.139821114246E+01 -9.291044136360E-01 -2.874568180676E+01 -1.099591623556E+00 -1.012137106736E+01  2.735288029035E+01      110
 O   4.522930849240E+00  1.679674425668E+01  1.824977350984E+01  0.000000000000E+00 -3.780386612865E+00 -2.991071484137E+01  1.524388295393E+01 -3.249818911514E+01  3.777966254615E+00 -1.403916823941E+01      111
 O   4.880107377764E+00  1.682606177659E+01  2.085384150795E+01  0.000000000000E+00 -1.233967709617E+00 -2.159814706055E+01 -4.149404855786E+00 -2.676825638978E+01 -9.710221132316E-01 -4.254581980501E+00      112
 O   5.283093311933E+00  1.425969931412E+01  1.947116095996E+01  0.000000000000E+00 -2.396547420725E+00  1.161564750061E+01  6.645474947602E+00  1.586079321564E+01  1.803110986679E+00 -6.468567483823E+00      113
 O   7.904461562841E+00  1.626209156623E+01  2.182056367973E+01  0.000000000000E+00 -2.453477096935E+00  1.382934810859E+01  1.382413953345E+01  1.855629516190E+01  5.007770705895E+00 -5.047613792389E+00      114
 O   1.172767205909E+01  1.367481545486E+01  3.515583899218E+01  0.000000000000E+00 -1.760417579662E+01  6.925299705462E+00 -7.087364449443E+01  1.780387620012E+01 -2.364281109741E+01 -2.052699410767E+01      115
 O   8.417425330149E+00  1.830991208179E+01  2.003176537289E+01  0.000000000000E+00 -5.822864767442E+00 -9.527234967846E+00 -2.749654836209E-01 -1.042317050326E+01 -1.155415603000E-01 -1.266612268886E+01      117
 O   6.313075433233E+00  1.999451761699E+01  2.036773864663E+01  0.000000000000E+00  6.601483350143E+00  6.636934796473E+00 -1.024731600941E+01  6.760820937957E+00 -3.176203312404E+00  2.090795152674E+01      118
 O   6.338207577504E+00  9.809282228412E+00  2.196499794602E+01  0.000000000000E+00  1.014492449712E+01 -3.327093096923E+01  4.146200347255E+00 -7.450044900172E+01  1.196425263658E+00  1.570072080495E+01      119
 Ca  2.360186817528E+01  1.841156342785E+01  2.051437409465E+01  0.000000000000E+00 -1.602537635325E+01  1.945396184620E+01 -1.728511790517E+01  2.167582630883E+01 -1.988659621345E+01 -1.250122367398E+01      120
 Ca  3.186481063695E+00  1.222374520868E+01  1.803229475305E+01  0.000000000000E+00 -4.295917695064E+00 -5.895581510859E-01 -2.861417186413E+00 -8.697077837403E-01  1.377576055766E+00  1.561475914603E+00      121
 Si  1.111178447050E+00  1.714606978897E+01  1.394809119607E+01  0.000000000000E+00 -1.822812113385E+02 -1.217104588831E+01  3.106558155532E+01 -9.900977897037E+00 -1.389898652435E+02  1.449101712927E+00      125
 Si  2.075130759336E+00  1.930749312075E+01  1.566864275558E+01  0.000000000000E+00  1.150681432194E+00 -2.114751354548E+01 -1.270517525305E+00 -1.716187766275E+01 -3.486212150398E+00  5.066832195752E+01      126
 Si  3.341810828849E+00  2.081498029956E+01  1.316435090458E+01  0.000000000000E+00  7.483222912856E+00  2.085266709943E+01  3.027484899829E+01  1.318818577019E+01  8.388810890271E+00  4.792801846835E+01      127
 O   8.658047695407E-01  1.826375913895E+01  1.520513300531E+01  0.000000000000E+00  1.708807707768E+01  1.475353652413E+01 -1.102525660458E+01  1.228276629369E+01  2.304019940131E+01  2.893675050449E-01      128
 O   2.419287307774E+00  1.716646586319E+01  1.303673869461E+01  0.000000000000E+00  2.898641481253E+01 -1.306245920245E+01  2.650186457008E+00 -9.920030639305E+00  4.424747740972E+00  1.366896804938E+01      129
 O   1.101816583900E+00  1.575928954751E+01  1.527342730917E+01  0.000000000000E+00  2.978151912763E+00  4.560586202589E+01 -3.880067547918E+00  4.419982362937E+01  1.436415159824E+00 -1.051406384709E+01      131
 O   3.386559321793E+00  1.820904170481E+01  1.586704734594E+01  0.000000000000E+00 -7.579237941470E+00  2.706982922284E+01  4.733022136110E+00  2.358818596214E+01  7.375066045028E-01 -3.906216770458E+01      132
 O   3.024636626130E+00  4.561077226478E+00  9.278983097617E+00  0.000000000000E+00 -4.991940726547E+00 -8.552773140296E+00 -3.354597941196E+01 -1.739962589229E+01 -1.151350303547E+01 -1.121515441526E+01      133
 O   2.597727014645E+00  2.053478340931E+01  1.464950379708E+01  0.000000000000E+00  2.532205549311E+00 -9.794139767751E+00  3.166674645323E+00 -6.987134213051E+00  7.041015418854E-01 -2.059839204072E+01      134
 O   2.415082103562E+00  2.058733488637E+01  1.191713816627E+01  0.000000000000E+00 -2.170249704336E+00  2.437754961441E+00 -3.013647853786E+01  1.411113330179E+00 -7.411055374053E+00 -4.020429166865E+01      135
 O   8.039071900788E+00  1.456977608514E+01  1.283238738648E+01  0.000000000000E+00  5.939709462242E+00  1.744984947530E+01  8.409108088497E+00  1.536902331198E+01  5.268031778416E+00  1.076495370905E+01      136
 Si  8.848529712106E+00  1.454287359360E+01  2.562776636205E+01  0.000000000000E+00 -9.740341587609E+00  2.109679607200E+01 -1.957438318783E+01  3.717723029367E+01 -6.758470823669E+00 -1.600859815991E+01      139
 Si  8.669699921086E+00  1.684150265522E+01  2.322079944950E+01  0.000000000000E+00 -1.305486832303E+01  2.270396459125E+00  3.388786582278E+01  3.130386992628E+00  1.265234766307E+01 -2.536000109889E+01      140
 O   8.414941293780E+00  1.585076672159E+01  2.463189664755E+01  0.000000000000E+00  2.295336911813E+00  5.116614436343E+00 -3.144745191166E+01  7.951155940599E+00 -1.074332461938E+01  4.323601159699E+00      142
 O   7.539237175005E+00  1.348691414942E+01  2.555180433399E+01  0.000000000000E+00  4.091797406197E+00  3.662290341261E+00  8.434184568308E+00  6.938438635955E+00  2.488564682443E+00  7.319801599711E+00      143
 O   8.276527181544E+00  1.855123973128E+01  2.382561664503E+01  0.000000000000E+00 -3.331117965351E+00 -5.901668161140E+01 -2.773547255570E+01 -7.579594960242E+01 -9.634730379501E+00 -7.466461064276E+00      148
 O   1.292758563302E+01  1.629592793674E+01  1.800556637788E+00  0.000000000000E+00 -1.852708970621E+01 -4.202218975405E+01  2.563515737815E+01  3.103504481265E-01 -9.514398679457E+00 -2.335440872724E+01      150
 Ca  4.098937061400E+00  1.155663569297E+01  7.075391168454E+00  0.000000000000E+00 -3.395296704284E+00  6.544572803743E+00  1.056617429515E+01  4.006824637129E+00  6.794480752427E+00 -5.114080915651E+00      151
 Ca  1.298097616507E+01  2.183231239233E+01  1.729362212599E+00  0.000000000000E+00  2.330628009998E+00  1.077011196047E+01 -1.262240038427E+01 -3.474962001923E+00  1.758611215375E+00  3.919812973812E+00      152
 H   7.250932462200E+00  1.751020410114E+01  1.535317493076E+01  0.000000000000E+00 -1.731789600355E+01 -5.393403234456E+00  1.188790995271E+01 -4.729006175626E+00  5.614371787757E+00 -4.182081342023E+01      155
 H   1.080623043100E+01  1.363844173399E+01  3.548315084533E+01  0.000000000000E+00  4.867516455995E+00 -3.419270296201E+00  1.260428113229E+01 -8.895919788162E+00  3.838575861717E+00  6.143246712923E+00      156
 H   1.435363820251E+01  1.108214262617E+01  1.173923630930E+01  0.000000000000E+00  8.456408468729E+00  1.670057722434E+01  2.876323215516E+00  1.769080485170E+01  3.516898518883E+00  6.529015392012E+00      159
 H   1.633823525142E+01  2.850443242487E+00  1.031845101533E+01  0.000000000000E+00  1.668299836223E+01  6.611880536439E+00  1.643959445203E+01  2.479021843353E+01  2.603045371792E+01  2.792548186522E+00      160
 H   1.687790632732E+01  1.654420197762E+01  1.517898972777E+01  0.000000000000E+00  1.263601602959E+01  2.366984999002E+01 -3.618392225351E+00  2.171663585480E+01 -4.023382723770E+00  1.238618092385E+01      164
 H   1.814320143333E+01  5.437635824303E+00  5.932673459221E+00  0.000000000000E+00  4.095450403481E+01  1.513673900743E+01 -1.282321611468E+01  1.651477455831E+01 -3.921574220978E+01  1.227433202043E+01      168
 H   6.125717568448E+00  2.152332433315E+01  3.277768777571E+01  0.000000000000E+00 -8.790927180989E+00  5.047647575809E+01 -6.256008221177E+01  7.687019610945E+01 -1.169165431407E+01 -3.088780616986E+01      169
 Si  1.223375248751E+01  6.596511708721E-01  1.992225951292E+01  0.000000000000E+00  5.865376223255E+00 -1.735888205493E+02 -1.923380911195E+01  3.656539793957E+01 -1.181099261934E+01 -1.401013589825E+02      177
 Si  1.125427241269E+01  3.385215456201E+00  1.868208827315E+01  0.000000000000E+00 -1.937062878904E+01 -5.769495322756E+00  3.798385337070E+01 -3.723077569426E+01  2.288184419576E+01 -5.997245814744E+00      178
 Si  8.055543346082E+00  3.925929506935E+00  1.982721146351E+01  0.000000000000E+00  1.765553394559E+01  4.806580185926E+00 -7.248678222802E+00  2.427478170311E+01 -2.945045587124E+00  8.604556973975E+00      179
 O   1.176689185489E+01  1.831087838224E+00  1.869505055553E+01  0.000000000000E+00  6.727801086955E+00  4.861590650235E-01  3.911014786434E+01 -4.923864988278E+01  2.461640202476E+01  1.247922265799E+00      180
 O   1.198552251255E+01  1.106634514308E+00  2.154625422480E+01  0.000000000000E+00  1.287972545007E+01 -2.760177469919E+00 -3.741066760001E+01 -9.914695413554E+00 -2.081041066588E+01  3.847339189866E+00      182
 O   1.167206415005E+01  3.427438603881E+00  1.702931440271E+01  0.000000000000E+00 -8.933591708652E+00  1.030974435573E+01 -7.106410786185E+00  4.898377153844E+01 -4.870805753623E+00 -2.771654704541E+00      184
 O   1.207112886305E+01  3.989149811638E+00  1.996601971130E+01  0.000000000000E+00 -4.476787706718E+00  5.122819223114E+00 -2.740388179246E+01  2.278774568737E+01 -1.656793859005E+01 -1.432185499376E+00      185
 O   9.473999666484E+00  3.229383946868E+00  1.921204004938E+01  0.000000000000E+00  1.135096996089E+01  5.298007101075E-01 -1.971533643896E+01  6.161034591093E+00 -9.722189333731E+00  4.025882978871E+00      187
 O   6.798749335594E+00  3.936901778063E+00  1.883864260235E+01  0.000000000000E+00  3.491113862312E-01 -1.838387927778E+00  1.149578929177E+01 -7.505308709223E+00  4.148759093703E+00  1.426615422660E-01      188
 Ca  1.134673121681E+01  3.998590441624E+00  2.242554445136E+01  0.000000000000E+00  8.060460688982E+00 -1.405638264034E-01 -2.128412205896E+01 -7.883328846208E-01 -1.076920173388E+01  2.840508023870E+00      190
 O   1.561094582899E+01  1.895410254873E+01  7.809004095432E+00  0.000000000000E+00 -2.819047240889E+01  4.670617115236E+01  1.212520110842E+01  1.924273021490E+01  2.423943634245E+01 -3.422759330461E+01      193
 O   4.055561231210E+00  1.209716634132E+01  1.276362465649E+01  0.000000000000E+00  9.984961504097E+00  1.389830408200E+01 -2.041153638726E+01  1.466399086028E+01 -6.506020834628E+00  2.958697589153E+01      194
 Si  1.834677577288E+01  1.795961125569E+00  1.999571092882E+01  0.000000000000E+00 -8.722987002240E+01  8.449341643705E-01  2.041147977690E+01  2.434542796617E+00  1.872825847466E+01 -9.289999261751E+00      196
 Si  1.660349145524E+01  4.253069586374E+00  1.954327221620E+01  0.000000000000E+00  9.526022327302E+01 -1.496556605523E+01 -3.588784572090E+01 -6.871450892016E+01 -3.048944584010E+01  2.439705767575E+01      197
 O   1.977267093322E+01  1.348084114949E+00  2.052363923988E+01  0.000000000000E+00  2.134721281472E+01  1.514195179913E+01  2.090680778872E+01  3.728781136809E+00  2.014181918901E+01 -4.211328501249E+00      202
 O   1.795055314601E+01  3.376584841055E+00  2.035859812658E+01  0.000000000000E+00 -6.593591852111E+00  1.149133159581E+00 -2.069052270161E+01  5.241284900039E+00 -1.824321719328E+01 -1.398635195652E+00      205
 O   1.558663322067E+01  5.181022962804E+00  2.009829453753E+01  0.000000000000E+00 -5.398218259893E+01  1.891223390443E+01  5.898956668233E+01  7.336459423218E+01  4.574760002683E+01 -1.794376782129E+01      206
 Ca  1.417242429513E+01  5.453641521642E+00  1.823238305359E+01  0.000000000000E+00  8.327191828122E+00  1.521831474674E+00  1.144852744526E+01  5.087722447315E+00  8.899187123910E+00  3.204357854860E+00      209
 O   2.226774391110E+01  1.920444093399E+01  1.479256434520E+01  0.000000000000E+00  2.890050522277E+01 -7.390963638837E+01  2.085976708138E+01 -5.693022024244E+01  3.140090795441E+01  2.492475428715E+01      210
 O   1.450549142889E+01  1.724420513090E+01  4.184582752442E+00  0.000000000000E+00 -2.322593111195E+01  8.841973853397E+00  5.291812187417E+00  2.300722363986E+00  1.641755959036E+01 -2.761111006918E+01      212
 Si  1.416352815438E+01  4.074047619209E+00  1.499111401574E+01  0.000000000000E+00 -2.374592941070E+01 -9.264280066402E+00 -5.390002850184E+01 -3.408940977871E+01 -5.092447235116E+01 -6.830363602000E+00      213
 Si  1.156599689096E+01  4.757296558876E+00  1.596749861181E+01  0.000000000000E+00  2.056830641506E+00  1.930408507842E+00  8.747167123794E+00  6.479267118986E+00  6.335977238393E+00  8.460103720657E-01      214
 Si  9.608396826783E+00  6.287984340296E+00  1.432666195658E+01  0.000000000000E+00  1.607732520263E+01 -9.907932980067E+00  1.047717493836E+00 -2.257442112002E+01  7.026678980524E-01  1.052141901822E+01      215
 O   1.252954547856E+01  4.484452445003E+00  1.463316040159E+01  0.000000000000E+00 -1.284108555014E+01  5.400475531729E+00  1.528391205047E+01  1.762222382104E+01  1.308674721462E+01 -4.595955822211E+00      216
 O   1.463494497766E+01  4.524412037326E+00  1.636116790930E+01  0.000000000000E+00  1.801155151806E+01 -1.353976446965E+00  5.773109222539E+01 -4.896246365553E+00  5.164003956823E+01  5.568294286288E+00      217
 O   1.511142449719E+01  4.811067523503E+00  1.394930804504E+01  0.000000000000E+00  3.834972015885E+00  3.319828423505E+00 -1.565154903296E+01  9.625578753555E+00 -1.695547913287E+01  1.220951030964E+00      218
 O   1.379370270970E+01  2.521439190965E+00  1.465087385653E+01  0.000000000000E+00  2.646318656670E+01 -3.448684192445E+00 -1.309626445952E+00 -2.789022586376E+01 -1.233004804568E+00  4.997975203521E+00      219
 O   1.235643048077E+01  6.152330914542E+00  1.683197707141E+01  0.000000000000E+00 -1.231591484354E+01 -1.112733933694E+01 -6.521135831236E-01 -3.044295295339E+01 -4.787195301685E-01 -6.132157968331E+00      220
 O   1.003789284675E+01  5.239159801618E+00  1.568657767641E+01  0.000000000000E+00  4.169034971952E+00  4.907797906041E-01 -1.559419102893E+01  1.469444643576E+00 -9.978774326001E+00  2.175978641141E+00      222
 O   1.083498538335E+01  6.955562100101E+00  1.361940550808E+01  0.000000000000E+00  1.392373212613E+01 -1.097987074280E+00 -1.434686089409E+00 -2.149924189022E+00 -1.141371611208E+00  8.938395396201E+00      223
 O   2.137893994309E+01  2.105426679048E+01  1.303451556785E+01  0.000000000000E+00  2.181351010716E+01 -1.398682978490E+00 -1.435234141589E+01 -8.659126075983E-01 -2.354041034940E+01  2.148223731651E+01      224
 Ca  1.527821685191E+01  7.723462347790E+00  6.015788032413E+00  0.000000000000E+00  1.781550469152E+01  3.057154895000E+00 -1.632245473624E+00  2.381211301669E+00 -4.145392119406E+00  9.006115113140E+00      225
 Ca  1.704529372071E+01  4.793944365696E+00  1.558433951382E+01  0.000000000000E+00 -9.717979301515E+00  2.037733870263E+00 -1.672159197832E+00  6.624343974502E+00 -1.828915793932E+00 -2.733156311753E+00      226
 Si  2.122135306316E+01  2.206003039370E+00  2.063978387485E+01  0.000000000000E+00  2.666701662067E+01 -1.102084013794E+00 -6.604988240345E+01  1.740420662910E+01 -6.791097633399E+01  7.370163488471E+00      228
 Si  2.290163126007E+01  4.644075390431E+00  2.188757275889E+01  0.000000000000E+00  3.342958664379E+00 -2.367405097312E+00 -2.546288414456E+01 -1.115760338946E+01 -2.664258800737E+01  6.778972156249E-01      229
 O   2.214693977752E+01  8.999997202870E-01  2.065546130149E+01  0.000000000000E+00 -1.395290038724E+01  3.989861755984E+01 -6.743331762966E+00  5.749428060350E-01 -7.230250647730E+00 -1.394830065464E+01      230
 O   2.177315269001E+01  3.435488822766E+00  2.167664630997E+01  0.000000000000E+00 -2.566018593834E+01 -1.054474623267E+00 -2.190914102346E+01 -7.554426661578E+00 -2.200668249089E+01 -3.915213606715E+00      236
 O   2.285874376058E+01  4.681275447459E+00  2.357671808310E+01  0.000000000000E+00  4.878143925787E+01  2.616142065424E+00 -2.075548589722E+00  1.317590571931E+01 -2.012342566420E+00  9.990022036266E+00      237
 H   1.361515047674E+01  1.719101685516E+01  4.493866913173E+00  0.000000000000E+00 -2.096562959889E+01 -7.093451432568E+00  4.714116111897E-01 -1.850140264074E+00  1.372495157827E+00 -2.647201677493E+01      243
 H   1.893987206036E+01  1.872192463046E+01  7.944441661510E+00  0.000000000000E+00  1.198106972907E+01  4.280698390890E+00 -1.314702222485E+00  1.816467019722E+00 -3.134303573778E+00  1.184319956043E+01      247
 H   1.246951858692E+01  7.892842435295E+00  6.810327116163E+00  0.000000000000E+00 -2.687234435878E+01 -3.726583428488E+00 -5.096667585784E+00 -3.215476855357E+00 -9.331855887138E+00 -1.700941206449E+01      248
 H   5.475953389775E+00  1.053583479561E+01  1.001904728687E+01  0.000000000000E+00  7.907547631742E-01 -4.781229262741E+00  7.778896700579E+00 -4.546707783679E+00  4.251589451233E+00  1.521426673244E+00      249