     8448
Lattice="     49.70      0.00      0.00      0.00     49.70      0.00      0.00      0.00     49.70" pbc="T T T" config_type=md Properties=species:S:1:pos:R:3:charge:R:1:forces:R:3:id:I:1
 Si  1.081570734371E+01  1.757148501560E+01  1.673047635563E+01  0.000000000000E+00 -1.347999751106E+01 -5.878580516500E+00 -1.505800471093E+01 -5.597219145032E+00 -9.734508968650E+00 -2.189996148644E+01        1
 Si  1.293977379595E+01  1.955881681412E+01  1.718614441468E+01  0.000000000000E+00 -1.116550892445E+01  6.709616261246E+01  2.304039284272E+01  5.895675343182E+01  1.734754837158E+01 -1.687696764516E+01        2
 Si  1.136330260240E+01  2.238195375889E+01  1.810150708877E+01  0.000000000000E+00  2.268725364274E+01 -4.942105824722E+01 -9.619435664190E+00 -3.996950605089E+01 -6.038644063198E+00  4.468639793511E+01        3
 O   1.201211566865E+01  1.830497791217E+01  1.769235754440E+01  0.000000000000E+00 -6.296177802137E+00  1.337569641577E+00 -1.680401163373E+01  1.292804637780E+00 -1.140897876019E+01 -9.594595887880E+00        4
 O   9.901741658916E+00  1.839350486277E+01  1.565593482942E+01  0.000000000000E+00  3.627102269714E+00  1.908075769693E+01  6.031200237774E+00  1.624090140666E+01  3.814488709764E+00  6.737716003293E+00        5
 O   1.144302124271E+01  1.629900353694E+01  1.597134668980E+01  0.000000000000E+00  1.558406888239E+01 -6.843857351571E+00 -9.484121841072E+00 -6.706276135825E+00 -6.795106875064E+00  2.219735404194E+01        6
 O   9.564474262933E+00  1.672808507944E+01  1.747149029106E+01  0.000000000000E+00  1.344948324690E+01  1.764102773767E+01  5.760047395116E+01  1.842500461824E+01  3.153241317489E+01  2.352289251282E+01        7
 O   1.300756694921E+01  1.985114957843E+01  1.560438835758E+01  0.000000000000E+00 -3.713889725923E+00  1.264817512941E+01 -2.180928370237E+01  9.942347971049E+00 -1.817986782769E+01 -5.667853239193E+00        8
 O   1.458925557852E+01  1.958675002024E+01  1.741678781546E+01  0.000000000000E+00 -5.846173454998E+00 -1.039358669960E+01  8.771877110694E+00 -9.242109793687E+00  7.347804797716E+00 -7.848758109813E+00        9
 O   1.230895145167E+01  2.101460090040E+01  1.786643644787E+01  0.000000000000E+00  1.421012826272E+01 -5.412569246644E+01 -3.117844422208E+00 -4.601720723756E+01 -2.148016239210E+00  2.426040718066E+01       11
 O   1.859619143885E+01  1.686691792317E+01  2.081931699264E+01  0.000000000000E+00  2.573215553566E+01  1.450968565133E+00  3.073599947042E+00  1.790971808926E+00  2.745395203975E+00  2.333930347154E+01       13
 Ca  3.886148402582E+00  1.598382523238E+01  1.749634347535E+01  0.000000000000E+00  3.463846924278E+00  1.845548709953E+01 -1.571509848004E+01  2.020189388982E+01 -3.490512457112E+00  1.424688872731E+01       14
 Ca  2.235245131928E+01  1.358164078265E+01  1.768837406753E+01  0.000000000000E+00  1.540872380358E+01  1.256637344629E+00  3.476169502133E+01  1.636611641755E+00  4.392767208413E+01  9.362541433601E+00       15
 O   6.989337025137E+00  4.388334171683E+00  1.653384833615E+01  0.000000000000E+00  6.344196653828E+00 -8.704292234084E+00 -3.085669519868E+01 -3.279500649712E+01 -1.304401962815E+01  3.983275504921E+00       16
 O   1.042954889388E+01  1.656668133230E+01  2.091928426237E+01  0.000000000000E+00  1.623878443278E+01 -1.596033398766E+01 -1.450358435240E+00 -2.015362986183E+01 -7.230928182944E-01  2.579428599062E+01       18
 Si  2.026032162267E+01  1.953778020115E+01  1.775090159078E+01  0.000000000000E+00  1.060557816621E+02 -2.732902441311E+01  2.217112326613E+01 -2.482957725672E+01  2.530542382934E+01  1.022735270331E+02       19
 Si  1.814501064692E+01  2.130900405788E+01  1.820906918693E+01  0.000000000000E+00  6.135619582337E+01  1.946976235335E+01 -2.383649456057E+00  1.663739181720E+01 -2.375263903643E+00  7.205503767497E+01       20
 O   1.880343229291E+01  1.994961672215E+01  1.748992129606E+01  0.000000000000E+00 -7.034219098696E+01  3.485388729510E+00 -4.113728312654E+00  3.055656427607E+00 -4.422673520883E+00 -7.462997859783E+01       22
 O   2.137733241240E+01  2.077593082243E+01  1.775992140281E+01  0.000000000000E+00 -1.211115469947E+01 -2.206952297419E+01 -1.852770285094E+00 -1.886572480286E+01 -2.230149862150E+00 -1.177043549503E+01       23
 O   2.097054924781E+01  1.843584233827E+01  1.676421568110E+01  0.000000000000E+00 -8.037241745148E+00  3.603997554244E+00 -8.749332036128E+00  3.277213549830E+00 -1.094463957272E+01 -7.065781630092E+00       24
 O   2.014606627648E+01  1.877899559714E+01  1.930877835096E+01  0.000000000000E+00 -9.390586610831E+00  1.123735531003E+01 -8.827612530222E+00  1.155437743249E+01 -9.210404918661E+00 -8.753360690827E+00       25
 O   1.875533346838E+01  2.167576193003E+01  1.972073450802E+01  0.000000000000E+00 -1.981703449151E+00  9.795854182820E+00 -1.600314645209E+01  8.912325215707E+00 -1.521973474823E+01 -2.290278242833E+00       26
 O   2.138457334575E+01  1.733180630190E+01  2.083048995774E+01  0.000000000000E+00 -5.365546098421E+00 -2.184538505096E+01  5.972464133865E+00 -2.625520191032E+01  6.131329487910E+00 -4.348677159848E+00       27
 O   1.872901734333E+01  2.231612514426E+01  1.703222133965E+01  0.000000000000E+00  1.684965605734E+01 -1.285479057358E+01 -6.493533816278E+00 -9.811095649840E+00 -7.140437235948E+00  2.007681590125E+01       29
 Ca  4.493835983848E+00  9.738368473791E+00  1.332077001267E+01  0.000000000000E+00 -5.730058623766E-01  1.586410170333E+00  1.268837164938E+01  2.169994397075E+00  4.544457958354E+00  5.186796031295E-01       32
 Si  1.258560789751E+01  1.830420080438E+01  1.190450439938E+01  0.000000000000E+00 -3.441716832234E+01 -5.274308776799E+00 -2.969558377720E+00 -3.430252580165E+00 -3.139458487049E+00 -5.005548919216E+01       37
 Si  1.245960266227E+01  2.052861225489E+01  1.414836052775E+01  0.000000000000E+00 -3.265507932632E+01  4.258278564222E+00  7.307005140115E+00  2.934814083199E+00  6.434836072948E+00 -5.380295662819E+01       38
 O   1.193361088061E+01  1.912680295674E+01  1.337656546799E+01  0.000000000000E+00  1.943688397204E+01 -5.111852446254E+00 -2.419346795221E+01 -3.575037033877E+00 -2.158367430602E+01  3.115280475838E+01       40
 O   1.374525953237E+01  1.731176613300E+01  1.204938444523E+01  0.000000000000E+00 -2.870283256164E+00 -1.055313822846E+00  5.605676807903E+00 -7.345225128473E-01  6.394640566863E+00 -3.615040687239E+00       41
 O   1.312768948520E+01  1.935871267336E+01  1.064062193347E+01  0.000000000000E+00 -2.365858531189E+01  1.301282443176E+01  7.043677572523E+00  7.152569873904E+00  8.690019491721E+00 -3.488807042760E+01       42
 O   1.090151742357E+01  1.785939057826E+01  1.137621610304E+01  0.000000000000E+00  3.137904046667E+01  1.422160399509E+01  7.215651721049E+00  9.058989984626E+00  6.914562122147E+00  5.140665449505E+01       43
 O   1.354689674923E+01  2.163877762659E+01  1.365383239620E+01  0.000000000000E+00 -9.387306080130E+00 -3.586947721955E+01  1.597635887777E+01 -2.263324844622E+01  1.585123340213E+01 -1.499456536363E+01       44
 O   1.073416158278E+01  2.116070565310E+01  1.417214989573E+01  0.000000000000E+00  1.985930716916E+01  2.594804157704E+01  1.743943578284E+01  1.737841548193E+01  1.320884431669E+01  3.914949018051E+01       46
 O   8.351448819975E+00  2.201721591489E+01  1.516585483097E+01  0.000000000000E+00  1.240537966427E+01 -2.161214764820E+00  2.738154681186E+01 -1.488683651399E+00  1.507831832493E+01  3.270473524558E+01       47
 O   1.710485336438E+01  1.555618965883E+01  9.584785420302E+00  0.000000000000E+00  2.686060123467E+01 -2.815347566271E+01  1.074142566415E-01 -1.734647294620E+01  1.916897487560E-01  2.442865765963E+01       48
 Ca  7.268269417451E+00  2.181189903116E+01  1.349970726711E+01  0.000000000000E+00 -9.847892108046E+00 -1.356960213957E+01 -1.667734248488E+01 -8.398427681773E+00 -8.979114579956E+00 -2.955328373144E+01       49
 Si  2.081924311903E+01  2.137115198261E+01  2.282234232677E+01  0.000000000000E+00 -3.606739836302E+01 -5.739324609726E+01 -4.442078809424E+01 -6.129048685545E+01 -4.052201012637E+01 -3.702352903161E+01       51
 Si  1.974912878307E+01  2.291369020328E+01  2.021605916140E+01  0.000000000000E+00 -7.771195993983E+01  4.411955389436E+01 -3.766014935551E+00  3.892535439688E+01 -3.679031277431E+00 -9.016437103175E+01       52
 O   2.052718428287E+01  2.224421200741E+01  2.137060733165E+01  0.000000000000E+00  5.034548462242E+01 -3.805445568943E+01  9.350940071874E+01 -3.655992981400E+01  8.981891206672E+01  5.455670968432E+01       54
 O   1.952786779891E+01  2.026590487907E+01  2.302710638651E+01  0.000000000000E+00 -4.084986291978E+00  2.153624707568E+01  8.254141803802E+00  2.447053095024E+01  6.999828255996E+00 -4.239374440570E+00       55
 O   2.176730726884E+01  2.015191441483E+01  2.235128196418E+01  0.000000000000E+00  2.918117636155E+01  2.372504544603E+00 -1.110471928838E+00  2.631438231928E+00 -1.081458492053E+00  2.701558632398E+01       56
 O   2.128108637347E+01  2.222015835421E+01  2.407594883810E+01  0.000000000000E+00  4.205628912017E+00  1.958070616637E+01  2.623902451908E+01  2.121605401548E+01  2.319306088001E+01  4.391210991962E+00       57
 O   1.665347880558E+01  2.146147255313E+01  1.806297208400E+01  0.000000000000E+00 -7.065329188542E+01 -4.746351196322E+00 -3.253410557716E+00 -3.994749612256E+00 -2.999539805343E+00 -9.105146752157E+01       58
 O   1.704342960215E+01  1.820340789817E+01  1.529819818843E+01  0.000000000000E+00 -1.395837389512E+01  2.859087196629E+01  4.633667826014E+01  2.402785391433E+01  5.162280578386E+01 -1.490838285129E+01       59
 H   1.977528288195E+00  7.895472703134E+00  1.468929954326E+01  0.000000000000E+00  5.831128183128E+00 -4.714044221978E+00  3.243944760137E+00 -8.770343491824E+00  7.120055272956E-01  1.427616579726E+01       70
 H   1.496055025020E+01  1.956837559864E+01  1.832931704770E+01  0.000000000000E+00 -1.724044562073E+00  3.850444723497E+00 -5.832565528255E+00  3.606636726480E+00 -4.760591430981E+00 -2.255047506625E+00       73
 H   1.638993639430E+01  1.156807029449E+01  1.671382680277E+01  0.000000000000E+00 -8.391995614677E+00  3.030015421838E+01 -5.906873472324E+00  4.377839318150E+01 -5.792406589045E+00 -5.923097737915E+00       83
 Si  1.981860142363E+00  2.148628772505E+01  2.126485551571E+01  0.000000000000E+00  9.867250461533E+00  1.161969412490E+01 -1.560556943424E+01  1.149994451646E+01  1.691945080508E+00  3.540322220609E+01       89
 Si  2.690765162534E+00  2.074643383891E+01  1.843374790903E+01  0.000000000000E+00  9.099926299537E-01  5.542194977281E+00  3.800152909781E+01  4.924384878247E+00  4.711672149161E+00 -2.798733538980E+01       90
 O   1.689024260222E+00  2.062992513817E+01  1.984930263555E+01  0.000000000000E+00  1.134520645095E+01  2.614488896415E+01 -7.536946930921E+00  2.515558393677E+01  3.745628749723E+00  5.167879391155E+00       92
 O   8.871627638731E-01  2.077201445436E+01  2.220961851225E+01  0.000000000000E+00  3.627832056233E+01  1.001037769477E+01  2.534970077969E+01  1.070318289315E+01 -6.015740778855E+00 -1.349020501766E+01       95
 O   1.574437252216E+00  1.953670702849E+01  1.779547153101E+01  0.000000000000E+00  3.998869228953E+01  1.434667184659E+01  5.224377549554E-01  1.306800527020E+01 -1.463935636093E+00  1.572293635967E+01       96
 O   4.087061528585E+00  2.027655006913E+01  1.912130330747E+01  0.000000000000E+00  1.182888111949E+00 -4.570654600453E+00 -2.534474664927E+01 -4.310243736286E+00 -5.275462363990E+00  7.154999565677E+00       97
 O   1.068144146019E+01  1.362672122993E+01  2.148368473341E+01  0.000000000000E+00 -2.729333233942E+00  2.245054031542E+01 -3.242148876874E+01  3.539518583326E+01 -1.611959208268E+01 -3.481914239863E+00       98
 O   3.689849258613E+00  1.282330740035E+01  2.023782346900E+01  0.000000000000E+00 -7.233019001820E+00 -1.571733769202E+01 -2.662336981262E+01 -2.480520006915E+01 -4.862979774908E+00 -2.844442859728E+01      101
 Ca  2.191611314001E+01  2.467231705587E+01  1.779335483516E+01  0.000000000000E+00  2.149953408199E+01 -1.716098307630E+01  1.821249639578E+01 -1.237627825977E+01  2.243237069511E+01  2.420334837824E+01      102
 O   1.624925964590E+01  3.427761098515E+00  1.186979897726E+01  0.000000000000E+00 -2.278470940799E+01 -9.587863167902E+00 -1.366616646404E+01 -3.232484499738E+01 -1.870841179902E+01 -4.818378625004E+00      105
 Si  6.045375642453E+00  1.616578374135E+01  2.012476645841E+01  0.000000000000E+00 -1.108650848091E+00 -9.897067017607E-01 -5.696262380188E+00 -1.232084788090E+00 -1.711127725003E+00 -2.964614759262E+00      107
 Si  8.926437424997E+00  1.657228085547E+01  2.122589848261E+01  0.000000000000E+00 -2.893508007944E+01  1.645135721415E+01 -9.586677547638E+00  2.107101859870E+01 -4.031625672418E+00 -5.371910996758E+01      108
 Si  7.873063748394E+00  1.959798387159E+01  2.041687803261E+01  0.000000000000E+00 -1.800735379283E+01 -7.872364727239E+01  7.494912292380E+01 -8.201308436492E+01  2.890154027088E+01 -4.482471379376E+01      109
 O   7.636772590957E+00  1.591215512905E+01  2.034579995995E+01  0.000000000000E+00  1.083206598651E+01  5.629505169424E+00 -1.010185976915E+01  7.198068716756E+00 -3.791721434134E+00  2.256994198695E+01      110
 O   5.564787292853E+00  1.704638314836E+01  1.882602046666E+01  0.000000000000E+00  2.463487046614E-01  4.777101770469E+00 -3.918324760647E+00  5.275829771011E+00 -1.158218428368E+00  7.546298154384E-01      111
 O   5.305514022066E+00  1.668430343982E+01  2.144436338262E+01  0.000000000000E+00 -3.225054494846E+00  5.765978071857E+00  1.068675555294E+01  7.411021351602E+00  2.643992289482E+00 -1.014186138764E+01      112
 O   5.559324714943E+00  1.462999977925E+01  1.976287850009E+01  0.000000000000E+00 -3.779772229463E+00 -2.913532918361E+01  2.502004983747E+01 -3.935734650745E+01  7.038174192587E+00 -9.946903575182E+00      113
 O   8.482627069630E+00  1.573865089885E+01  2.264355020174E+01  0.000000000000E+00 -3.373834641003E-01  1.271271681504E+01  2.522327829370E+01  1.829007093758E+01  9.449033448056E+00 -6.259806681272E-01      114
 O   1.303039781933E+01  1.259476169213E+01  3.579884839880E+01  0.000000000000E+00  6.444180000653E+00  1.191629436096E+01 -1.610343636065E+01  3.387039991158E+01 -5.861478550929E+00  6.228736262298E+00      115
 O   8.628841734403E+00  1.821435057914E+01  2.112317609482E+01  0.000000000000E+00 -5.864242108401E+00  1.153923584766E+01 -2.642711126283E+00  1.338204783919E+01 -1.079550535208E+00 -1.237864419479E+01      117
 O   6.322337094319E+00  1.960595690691E+01  2.101012537318E+01  0.000000000000E+00  1.314091605367E+00  2.496699346962E+01  3.205239515910E-01  2.675511659434E+01  9.645161239008E-02  4.075079041534E+00      118
 O   6.547840963488E+00  9.933530698546E+00  2.249759493765E+01  0.000000000000E+00  1.799217218147E+01 -3.907905463746E+01 -6.615177001994E+01 -8.850677251225E+01 -1.925322554452E+01  2.729537807879E+01      119
 Ca  2.268853771943E+01  1.913667565958E+01  2.070881600151E+01  0.000000000000E+00  1.160873155411E+01  3.904425274014E+00 -5.787634688698E+00  4.225186549093E+00 -6.340921080723E+00  9.791399221816E+00      120
 Ca  3.336917350979E+00  1.278734711418E+01  1.770530283009E+01  0.000000000000E+00 -4.432148599011E+00 -1.967760536665E+01  3.894299921370E-01 -2.724552316258E+01  3.531655021907E+00  4.903983470723E+00      121
 Si  1.642534348807E+00  1.692905570888E+01  1.463381413134E+01  0.000000000000E+00 -7.173674953662E+00  1.809755455770E+00 -1.777801933583E+01  1.564388789211E+00 -2.314267047573E+00 -7.806192171594E+01      125
 Si  2.257378960962E+00  1.909594597864E+01  1.639400930145E+01  0.000000000000E+00 -2.495243241093E+00 -3.528124410030E+01 -1.680916485748E+01 -3.028920612751E+01 -2.181100555815E+00 -3.393947829154E+01      126
 Si  3.274408368412E+00  2.085018712927E+01  1.401104234666E+01  0.000000000000E+00 -1.043072074816E+01  9.651556664484E-01 -5.289904978927E-01  6.485714890654E-01 -1.384016624605E+00 -6.250254885213E+01      127
 O   1.059433677185E+00  1.830637319130E+01  1.557391015308E+01  0.000000000000E+00  1.530002916447E+01 -2.745529341050E+01 -6.164905660187E+00 -2.335723566506E+01 -1.735227088510E+00  1.008851816152E+00      128
 O   3.179288438453E+00  1.694401094696E+01  1.459946841054E+01  0.000000000000E+00  1.753053749488E+00 -1.741142354369E+01 -1.459489707695E+01 -1.500220513339E+01 -3.164123938943E+00  8.567113657010E+00      129
 O   1.066759676362E+00  1.556000247642E+01  1.548728640138E+01  0.000000000000E+00  1.158499608118E+00  3.915515826493E+00 -7.900986286004E+00  3.897217568308E+00  2.243573786132E+00  1.481104314213E+01      131
 O   3.609018480906E+00  1.835606556620E+01  1.652381400820E+01  0.000000000000E+00  9.183378020455E+00 -2.961597048911E+01  3.516707339955E+01 -2.665978644877E+01  7.594301335947E+00  4.607963518824E+01      132
 O   2.236485415267E+00  4.341188637268E+00  9.293027036837E+00  0.000000000000E+00  1.113831619406E+01 -1.347401626786E+00 -9.450485508924E+00 -2.420701227108E+00 -6.992432400501E+00 -2.688660477196E+00      133
 O   2.594261216210E+00  2.035261187215E+01  1.558141838531E+01  0.000000000000E+00  5.974158328450E+00  7.834233345359E+01 -5.516234647064E+01  5.997680703047E+01 -1.009544154937E+01  2.912022464969E+01      134
 O   1.630517678759E+00  2.085603084473E+01  1.321413785505E+01  0.000000000000E+00  2.334448583470E+01  1.315482585544E+01 -4.718789631134E+00  8.334744209341E+00  4.438925081270E+00  3.851485977406E+01      135
 O   7.881969532448E+00  1.610789777904E+01  1.280402511421E+01  0.000000000000E+00  1.398063834673E+01 -5.369839479056E+00 -2.921584942675E+00 -4.268437786995E+00 -1.798484718612E+00  2.857137323963E+01      136
 Si  8.972162675982E+00  1.384488192550E+01  2.610291019209E+01  0.000000000000E+00  8.328349706177E+00  2.561188153661E+01 -1.314075804352E+01  4.828821561626E+01 -4.516776787896E+00  1.285141860223E+01      139
 Si  8.476218728303E+00  1.624074907934E+01  2.424011886658E+01  0.000000000000E+00  1.755173180053E+01 -2.948817409925E+01  2.886822718428E+01 -4.401255396731E+01  1.009456303656E+01  3.362976832210E+01      140
 O   7.898912703236E+00  1.473842976436E+01  2.526169849654E+01  0.000000000000E+00  5.540623500313E+00  3.182222593149E+01 -1.743058997096E+01  5.454335976239E+01 -5.450255396143E+00  1.033814315692E+01      142
 O   8.204132614872E+00  1.244350956981E+01  2.623937488506E+01  0.000000000000E+00 -1.673844296353E+01 -2.053175637573E+01  5.270719845974E+00 -4.329489599128E+01  1.647969312593E+00 -2.538781184776E+01      143
 O   7.203209863454E+00  1.705799189382E+01  2.493646281085E+01  0.000000000000E+00  2.256551075385E+00  1.340347221121E+01 -1.703601325319E+01  1.959405236042E+01 -4.921065975963E+00  5.343760723561E+00      148
 O   1.230529082207E+01  1.525304395293E+01  5.011016833943E-01  0.000000000000E+00  1.085489182698E+01 -3.930612544496E+00  3.838071010161E+01 -3.342784314264E+01  1.429508141213E+01  1.345519943700E+01      150
 Ca  5.907334291940E+00  1.078351598447E+01  7.843877430860E+00  0.000000000000E+00 -5.070798639771E-02  4.869608770810E+00  1.528048487502E+00  3.542129894321E+00  1.150794783515E+00 -9.256465858144E-02      151
 Ca  1.296765694455E+01  2.231808542022E+01  1.440703389814E+00  0.000000000000E+00 -6.405097655708E+00 -1.345901937472E+00 -3.300426993597E+01 -1.619915476208E+01  3.286001549974E+00 -1.102354243455E+01      152
 H   7.013949881283E+00  1.859022387146E+01  1.482353538369E+01  0.000000000000E+00 -3.756670348377E+00  3.546596074029E+01  2.687686979151E+01  2.827996734119E+01  1.271714289500E+01 -9.956920703693E+00      155
 H   1.307245294660E+01  1.165200058093E+01  3.581425886121E+01  0.000000000000E+00 -1.195872577376E+01 -2.234209738638E+01  1.623724520098E+01 -6.867195497805E+01  5.926707144626E+00 -1.065929097105E+01      156
 H   1.708647151123E+01  1.843156319160E+01  1.633723821822E+01  0.000000000000E+00  2.782908068706E+00 -1.445179752245E+01 -5.047710233323E+01 -1.280968175903E+01 -5.279200556826E+01  3.001985862971E+00      159
 H   1.702813377028E+01  3.022680674692E+00  1.143901489418E+01  0.000000000000E+00  3.268626555630E+00  3.341228168586E-02 -1.182482231551E+01 -5.312619020536E-01 -1.760244724403E+01  2.780036055190E-01      160
 H   1.594033622091E+01  1.918378924652E+01  2.249042410465E+01  0.000000000000E+00 -2.892623087200E+00 -3.063994867107E+01  7.113954503341E+00 -3.592123700389E+01  5.042093742470E+00 -3.481198320125E+00      164
 H   1.694439909688E+01  9.642751473322E+00  3.695555093553E+00  0.000000000000E+00  4.162951536003E+01 -2.607688266678E+01 -3.993372331257E+00 -9.924082488010E+00 -1.906387920473E+01  2.369060527178E+01      168
 H   6.147107535123E+00  2.180148747820E+01  3.119122733425E+01  0.000000000000E+00  1.136967377132E+01 -5.968284051411E+00 -1.191550703978E+01 -8.538779972195E+00 -2.348285379224E+00  4.032397333874E+01      169
 Si  1.201564525032E+01  8.818693524794E-01  1.964815877083E+01  0.000000000000E+00 -1.985076924053E+01 -1.314322423108E+02 -9.096803023016E+01 -6.933507636617E+01 -5.563063659631E+01 -1.162546364616E+02      177
 Si  1.050887366121E+01  3.349151718533E+00  1.893235239833E+01  0.000000000000E+00  4.885129227814E-01  4.019598514069E+00 -2.998784127850E+01  2.271426091244E+01 -1.664549807324E+01 -1.205978796126E-01      178
 Si  7.963349465273E+00  4.196704650440E+00  2.012822728541E+01  0.000000000000E+00  1.836983277474E+01 -3.551654661037E+00  2.005655506649E+01 -1.703443968809E+01  7.934993717987E+00  9.680946813871E+00      179
 O   1.095811011413E+01  1.728677046381E+00  1.870236727483E+01  0.000000000000E+00 -1.618594636680E-01  2.719292888224E+01  1.501076403592E+00  3.048929916729E+01  8.795122178146E-01  5.914273782002E+00      180
 O   1.258348775242E+01  1.249554274633E+00  2.106315389872E+01  0.000000000000E+00  1.598519123974E+01  3.869684729837E+00  4.021493467891E+01  1.639535404452E+01  2.402508857075E+01 -4.608430614352E-01      182
 O   1.120660039562E+01  4.248653212547E+00  1.754848457087E+01  0.000000000000E+00 -1.380855180901E+01 -1.506795744050E+01  4.276373757778E+01 -6.221263998239E+01  2.730925947037E+01 -5.236511918043E+00      184
 O   1.142459452269E+01  4.024046664092E+00  2.006126707200E+01  0.000000000000E+00 -1.865796865673E+00 -1.884950854592E+00  1.286720677493E+01 -1.073274038870E+01  7.327683715871E+00 -6.980597706077E-01      185
 O   8.817964162967E+00  3.568886625947E+00  1.886551227180E+01  0.000000000000E+00  2.305938382387E+01 -2.614538358147E+00 -1.239496668120E+01 -1.224739190952E+01 -5.793554419371E+00  9.397484473907E+00      187
 O   6.611117429168E+00  4.630302042516E+00  1.957058378051E+01  0.000000000000E+00 -2.187274837674E+01  1.851302403649E+00 -1.777853769969E+01  7.824774379942E+00 -6.005748309288E+00 -1.531926071036E+01      188
 Ca  1.185020761877E+01  2.830346376907E+00  2.228797459880E+01  0.000000000000E+00 -6.271861436558E+00 -3.615523662394E+00  2.835682344924E+01  1.434652987388E+01  1.507693055700E+01 -2.497197530273E+00      190
 O   1.545596073321E+01  2.006089015406E+01  8.895470522632E+00  0.000000000000E+00 -5.730672544156E+00  5.193623099733E+00 -4.011965148256E+00  2.302974635450E+00 -6.970825841837E+00 -7.438061884446E+00      193
 O   4.495932330917E+00  1.210955405584E+01  1.324395358353E+01  0.000000000000E+00  2.345876309418E+00 -6.810101924536E-01  1.299840167741E+01 -7.448059059129E-01  4.361064459439E+00  4.910744060181E+00      194
 Si  1.759101709314E+01  1.778787549200E+00  1.990871633484E+01  0.000000000000E+00  2.097550796020E+01  3.268613718926E+00  3.230078070451E+01 -1.287066306025E+00  2.854044308726E+01 -2.275536318297E+00      196
 Si  1.550469285565E+01  3.898906630325E+00  1.980970045077E+01  0.000000000000E+00 -2.074195055308E+00 -8.407299300849E+00 -2.105994514960E+01 -4.315394399802E+01 -1.648323668058E+01 -6.143562421642E-01      197
 O   1.882642236728E+01  2.514166888741E+00  2.084867218331E+01  0.000000000000E+00 -8.812063396749E+00  3.683444313442E+00 -2.856314536367E+01 -1.276877090757E+01 -2.579261806347E+01  7.208508691327E-01      202
 O   1.616844842927E+01  2.333237724776E+00  2.024849870263E+01  0.000000000000E+00 -3.000984864216E+01  1.037872126182E+01  2.223372366301E+01  3.647469765717E+01  1.775365273818E+01 -6.261691297967E+00      205
 O   1.488584293341E+01  4.760885080370E+00  2.100534345577E+01  0.000000000000E+00  8.652611987985E-01 -9.840781960834E-01 -2.065995730427E+01 -4.341818831396E+00 -1.464107835656E+01  2.767333466039E-01      206
 Ca  1.331725488850E+01  5.586691040651E+00  1.898935302549E+01  0.000000000000E+00  4.654405990529E+00 -3.435679182243E+00  2.856942336809E+00 -1.167799049549E+01  2.003576912281E+00  1.952559177139E+00      209
 O   2.279817613375E+01  1.848074652056E+01  1.420534216912E+01  0.000000000000E+00 -3.823490928673E+01 -6.892159490093E+00 -2.996988848478E-02 -5.297701785586E+00 -4.809872147045E-02 -3.099413139977E+01      210
 O   1.279042450559E+01  1.743177408594E+01  4.244540613177E+00  0.000000000000E+00  8.574280823455E-01 -1.494202887171E+01 -4.139230203066E-01 -3.638301418810E+00 -1.247308395618E+00  1.168568925907E+00      212
 Si  1.302735620519E+01  4.089038819783E+00  1.416790227839E+01  0.000000000000E+00 -7.921383184805E+00 -2.188903980673E+00  6.764210520733E+00 -7.584221882394E+00  6.219677279599E+00 -2.486371205244E+00      213
 Si  1.143875127474E+01  5.295671406717E+00  1.643556162250E+01  0.000000000000E+00  2.955001382551E+01  1.123961025179E+01 -8.732414851743E-01  3.488307576483E+01 -6.077548416732E-01  1.368044111855E+01      214
 Si  9.770383294248E+00  6.837315818306E+00  1.457478236483E+01  0.000000000000E+00 -9.853014386654E+00  5.963962565193E+00  2.297511416762E+01  1.271309659076E+01  1.540164827356E+01 -6.895141070211E+00      215
 O   1.281450923798E+01  4.912434699560E+00  1.559069196379E+01  0.000000000000E+00 -8.612322414664E+00 -2.460562267227E+00 -8.525569576387E+00 -7.809135533038E+00 -7.007449723810E+00 -3.301528812995E+00      216
 O   1.371760929641E+01  2.591138881023E+00  1.461951144590E+01  0.000000000000E+00  1.911492762310E+00  7.526317344615E+00  1.633867821970E+01  2.685741329614E+01  1.533071779225E+01 -2.320216673245E-02      217
 O   1.380254540017E+01  4.970664779786E+00  1.309626700174E+01  0.000000000000E+00 -2.652224869554E+00  7.368032023628E-01 -3.017997708957E+00  1.941263773232E+00 -3.180757569311E+00 -9.551369232952E-01      218
 O   1.151316116504E+01  3.654406284971E+00  1.367134485597E+01  0.000000000000E+00  8.973459328325E+00  2.506386691330E+00  1.456291343587E+01  1.018264610657E+01  1.226398508604E+01  2.761204887199E+00      219
 O   1.215639728616E+01  6.547442741983E+00  1.740740927995E+01  0.000000000000E+00  4.864815684300E+00 -2.746229927398E-01  6.665172499160E+00 -7.301285434166E-01  4.654597566905E+00  2.620192594356E+00      220
 O   1.017451656148E+01  6.069277619439E+00  1.594525863598E+01  0.000000000000E+00  4.792138635062E+00 -7.343885479216E+00 -3.816554061823E+00 -1.929391942528E+01 -2.435306531949E+00  2.858594763817E+00      222
 O   1.093342158113E+01  7.306044637583E+00  1.363475602454E+01  0.000000000000E+00 -2.779372014768E+00 -3.646935260489E+00 -9.567911019347E+00 -6.806018164505E+00 -7.672304853639E+00 -1.857260863277E+00      223
 O   2.166742527862E+01  2.021965146419E+01  1.282361039530E+01  0.000000000000E+00 -5.490445461573E+01  4.814199276655E+01  2.414062082611E+01  3.053238380419E+01  4.078922252044E+01 -5.123584929387E+01      224
 Ca  1.578624320493E+01  6.846960775500E+00  6.627574224331E+00  0.000000000000E+00  9.941629629898E-01 -4.071648683490E+00 -2.177953946485E+00 -3.941187155882E+00 -5.187676444593E+00  4.311978932339E-01      225
 Ca  1.686185638356E+01  4.263342388994E+00  1.704251228378E+01  0.000000000000E+00 -4.843429758928E+00 -4.282625754012E+00 -2.118147284978E+01 -1.325607093977E+01 -2.095694268767E+01 -1.193203036850E+00      226
 Si  2.038311843115E+01  2.495476010088E+00  2.030582687713E+01  0.000000000000E+00  1.694308299231E+01 -2.754072498160E+00 -3.888319803765E+01 -3.587624950571E+01 -3.903120199828E+01  3.953877437094E+00      228
 Si  2.255675825509E+01  4.656757260367E+00  2.045464785090E+01  0.000000000000E+00 -1.160756867238E+01  2.587055847895E+00  2.453206944407E+01  1.136355480447E+01  2.705321372338E+01 -2.396338564213E+00      229
 O   2.122061123245E+01  1.240033368481E+00  2.120716816924E+01  0.000000000000E+00  2.474719169216E+01  1.091026649151E+01 -5.158826608768E+01  1.472167543890E+01 -5.162096749863E+01 -1.168074347423E+00      230
 O   2.110530796733E+01  3.966106451864E+00  2.050167258813E+01  0.000000000000E+00 -5.056966685797E+01 -7.515546541456E+00 -9.882421307155E+00 -3.877063613421E+01 -1.017339167104E+01 -9.497530022490E+00      236
 O   2.326557778188E+01  3.896514733691E+00  2.180232871693E+01  0.000000000000E+00  9.281658816936E+00 -5.829133226978E+00 -2.457131912288E+01 -2.969260548789E+01 -2.622040717206E+01  1.491074739415E+00      237
 H   1.283521423749E+01  1.653746117134E+01  4.661272195589E+00  0.000000000000E+00 -4.012255286976E-01  7.039606040643E+00 -8.314477865568E-01  1.984193315115E+00 -2.289463052135E+00 -5.169568251075E-01      243
 H   1.810787829119E+01  1.896066948266E+01  7.033342946533E+00  0.000000000000E+00 -1.598369835938E+01  4.532413908919E+01 -5.691084226162E-01  1.681270876338E+01 -1.465213075712E+00 -1.673645121915E+01      247
 H   1.388970604164E+01  7.822712286411E+00  8.886176103997E+00  0.000000000000E+00 -2.083947839075E+01  2.974860148104E+01  1.908387707603E+01  3.379279486827E+01  2.982941589483E+01 -1.173683900588E+01      248
 H   6.036268970714E+00  7.385114015487E+00  8.360915985683E+00  0.000000000000E+00 -1.913273088848E+01 -1.358113917958E+01 -4.061055712627E+00 -1.537562770625E+01 -2.931930500013E+00 -2.340806874654E+01      249