     8448
Lattice="     49.70      0.00      0.00      0.00     49.70      0.00      0.00      0.00     49.70" pbc="T T T" config_type=md Properties=species:S:1:pos:R:3:charge:R:1:forces:R:3:id:I:1
 Si  1.088093645400E+01  1.739125795940E+01  1.655318431380E+01  0.000000000000E+00 -9.288186842458E+00  2.071879084970E+01  1.397574057588E+01  1.972036551321E+01  9.186700408877E+00 -1.484552860272E+01        1
 Si  1.293551985363E+01  1.955401541165E+01  1.703051927025E+01  0.000000000000E+00  5.649653764674E+00  5.270409824749E+01  1.777072064857E+01  4.590249838352E+01  1.349773932992E+01  8.540315196836E+00        2
 Si  1.150568625049E+01  2.228446220898E+01  1.807425953773E+01  0.000000000000E+00 -1.241063380064E+01 -1.507298074529E+01  2.267536567857E+01 -1.222524301653E+01  1.443465180790E+01 -2.403718421473E+01        3
 O   1.193780337642E+01  1.839897083508E+01  1.727503767342E+01  0.000000000000E+00  3.421979633511E-01 -2.183050524907E+01  1.817552744758E+01 -2.049695083425E+01  1.256008102754E+01  5.274077775443E-01        4
 O   9.977531265678E+00  1.840837440062E+01  1.561397219911E+01  0.000000000000E+00  4.727648728952E-01 -2.089109526389E+01  1.235964423132E+00 -1.771981455616E+01  7.897973377821E-01  8.722430982155E-01        5
 O   1.179249460777E+01  1.632942742204E+01  1.572861157748E+01  0.000000000000E+00 -4.434058652756E+01 -3.371980915870E+00 -1.391782141218E+01 -3.247914130828E+00 -1.043485835648E+01 -6.139976431070E+01        6
 O   1.005100378297E+01  1.695235897908E+01  1.798200573808E+01  0.000000000000E+00  9.126790028376E+00 -2.827395988667E+01 -2.180921153774E+01 -2.999125428784E+01 -1.219021230792E+01  1.539354916470E+01        7
 O   1.295859087104E+01  1.995952423092E+01  1.547783199835E+01  0.000000000000E+00  2.120525561413E+00 -1.849585335618E+00  7.651500632216E+00 -1.434281236371E+00  6.406108184465E+00  3.266148437474E+00        8
 O   1.456512442699E+01  1.938706973201E+01  1.737287516258E+01  0.000000000000E+00 -9.874341385043E+00  7.033634717245E+00  4.204179590468E+00  6.302884322954E+00  3.524712995146E+00 -1.314335115701E+01        9
 O   1.225828268822E+01  2.082868439130E+01  1.802330287765E+01  0.000000000000E+00  9.311096147233E+00 -2.076356098415E+00 -2.873759253986E+01 -1.796695083595E+00 -1.954544821911E+01  1.582096676348E+01       11
 O   1.856122570133E+01  1.708986589378E+01  2.062397165455E+01  0.000000000000E+00  1.652233389029E+01  2.599393911866E+01 -7.535051800552E+01  3.136936631951E+01 -6.781419189470E+01  1.521259829393E+01       13
 Ca  3.794957542034E+00  1.620770273781E+01  1.749360608075E+01  0.000000000000E+00 -1.433063899369E+00 -1.218063266610E+01  9.027462476023E+00 -1.314703219340E+01  1.958363338621E+00 -6.120404096226E+00       14
 Ca  2.236596521560E+01  1.340755508479E+01  1.806633478522E+01  0.000000000000E+00  1.541989734151E+01  1.645146794155E+00 -1.922891429168E+01  2.216792887746E+00 -2.380522852556E+01  9.243648598002E+00       15
 O   6.510320709173E+00  4.268109954420E+00  1.644701393591E+01  0.000000000000E+00  1.336002093217E+00  1.637729057526E+00  3.162259330648E+00  6.749883146594E+00  1.251736180702E+00  8.404014310593E-01       16
 O   1.007894669690E+01  1.598640358237E+01  2.104953551583E+01  0.000000000000E+00  3.563964586846E+01  6.570034751688E+00 -3.395442718429E+01  8.650862536612E+00 -1.625807189222E+01  5.652870081765E+01       18
 Si  2.035361892142E+01  1.953626004966E+01  1.786721477494E+01  0.000000000000E+00 -3.568989091895E+01  4.409866220970E+01 -1.430859320638E+01  4.033117224001E+01 -1.629977906980E+01 -3.425665936011E+01       19
 Si  1.815187523879E+01  2.137679160941E+01  1.829975759227E+01  0.000000000000E+00  5.336485007087E+01 -1.468911701647E+01  2.130394633808E+01 -1.257472522338E+01  2.113178680498E+01  6.284580872364E+01       20
 O   1.865657394766E+01  1.986011022852E+01  1.771995271666E+01  0.000000000000E+00  1.438919589800E+01  1.021668381103E+01  3.561928781785E+00  9.115717484419E+00  3.750201187116E+00  1.531744346179E+01       22
 O   2.127845820337E+01  2.086358158357E+01  1.770793836279E+01  0.000000000000E+00 -1.935314458717E+00 -2.492230089406E+01  9.154564403216E+00 -2.115277122114E+01  1.100043449628E+01 -1.897580675883E+00       23
 O   2.072254678348E+01  1.867242502328E+01  1.656026948823E+01  0.000000000000E+00  8.782236768229E+00 -5.715355713668E+00  7.346185868126E+00 -5.068855851421E+00  9.192584724575E+00  7.913393045017E+00       24
 O   2.009448461373E+01  1.904684809971E+01  1.944511169201E+01  0.000000000000E+00  2.758347337412E+01 -2.115726664630E+01  7.275771750183E+00 -2.159965842544E+01  7.518747426231E+00  2.614539449597E+01       25
 O   1.869367912964E+01  2.185626107428E+01  1.984272219984E+01  0.000000000000E+00 -1.771924169240E+01 -9.346513422139E+00 -2.923588853981E+00 -8.485452692128E+00 -2.754291038946E+00 -2.071696907717E+01       26
 O   2.127517949659E+01  1.702432609827E+01  2.094570845070E+01  0.000000000000E+00  6.246956577958E+00  1.793953202160E+01 -5.104223914359E+00  2.207172285688E+01 -5.184512150753E+00  4.998793355514E+00       27
 O   1.861359913360E+01  2.245559167234E+01  1.727030198788E+01  0.000000000000E+00  3.310762965065E+01  7.072912965794E+01 -4.755617261619E+01  5.439684896111E+01 -5.125512767683E+01  3.994130352425E+01       29
 Ca  4.517722998781E+00  9.661461752992E+00  1.341306218504E+01  0.000000000000E+00  2.790008230640E+00  2.575725383500E+00 -2.949921483078E+00  3.575894168371E+00 -9.935783451122E-01  5.966624739528E+00       32
 Si  1.258923182161E+01  1.831143690223E+01  1.166780956611E+01  0.000000000000E+00 -4.087376571883E+01  3.100407130835E-01  6.405203513162E+00  1.975539121978E-01  6.911030852441E+00 -5.945218838785E+01       37
 Si  1.206482682011E+01  2.047406476611E+01  1.419385478686E+01  0.000000000000E+00  2.043128134232E+01  4.954508559976E+01  1.473490467194E+01  3.434763728840E+01  1.252472113794E+01  3.467197529598E+01       38
 O   1.219514542114E+01  1.933287741645E+01  1.308948532431E+01  0.000000000000E+00 -2.499125219537E+01 -4.266472926426E+01 -1.413135967701E+01 -2.888650952160E+01 -1.316583364355E+01 -3.961845459744E+01       40
 O   1.367347953787E+01  1.725615742669E+01  1.197110575316E+01  0.000000000000E+00 -6.028941503792E+00 -8.625231694880E-01  7.870345924372E-01 -5.983577815835E-01  8.989563384694E-01 -7.608623936401E+00       41
 O   1.297329887695E+01  1.935712467445E+01  1.036077611310E+01  0.000000000000E+00  1.844233885333E+01 -2.410071178271E+01  9.204128953713E+00 -1.289975051287E+01  1.152499721209E+01  2.751733817731E+01       42
 O   1.089001279835E+01  1.790399083495E+01  1.135368091124E+01  0.000000000000E+00  3.117935458721E+01  1.662884867688E+01  3.252356962188E+00  1.054505911777E+01  3.119535348926E+00  5.126117747570E+01       43
 O   1.326010518585E+01  2.134741174054E+01  1.352883868693E+01  0.000000000000E+00  1.844354262363E+01  5.536335588127E+01 -2.814196166716E+01  3.508631022759E+01 -2.758295671034E+01  2.969221531975E+01       44
 O   1.095958576536E+01  2.163635354442E+01  1.476910057593E+01  0.000000000000E+00  1.494024164616E+01 -4.514958152771E+01 -2.122159396812E+01 -3.081936654320E+01 -1.574773480454E+01  2.949494234692E+01       46
 O   8.536562253916E+00  2.162528503124E+01  1.555128165956E+01  0.000000000000E+00  1.083620152056E+00  1.957560200966E+01 -5.721549890598E+00  1.407730349302E+01 -3.140729355895E+00  2.745085662915E+00       47
 O   1.721617123153E+01  1.575664592975E+01  9.802675815269E+00  0.000000000000E+00  4.013325686072E+01 -6.028591494261E+00 -1.941887122680E+01 -3.750565209399E+00 -3.410483203402E+01  3.673090316411E+01       48
 Ca  7.176483438685E+00  2.164117665765E+01  1.331577943595E+01  0.000000000000E+00  1.226233150156E+00  1.028023469867E+01  1.548264006445E+01  6.325411042237E+00  8.344303879773E+00  3.697789934686E+00       49
 Si  2.088107170602E+01  2.101183457021E+01  2.288708203004E+01  0.000000000000E+00 -3.361980454212E+00  1.860326865344E+01 -3.430409093858E+01  2.026355834259E+01 -3.129740094251E+01 -3.383034076350E+00       51
 Si  1.962718724365E+01  2.305137845692E+01  2.049503512447E+01  0.000000000000E+00 -2.572674001997E+01 -4.970787388645E+01  2.791309754745E+01 -4.419538827881E+01  2.673113701864E+01 -3.021506919465E+01       52
 O   2.062180381146E+01  2.245078722251E+01  2.169627888807E+01  0.000000000000E+00 -8.121068281735E-01 -5.637345851260E+01  4.242218862300E+01 -5.447890381981E+01  4.032129452012E+01 -8.841339859484E-01       54
 O   1.945702230817E+01  2.020101382519E+01  2.326486709583E+01  0.000000000000E+00  2.892063065328E+01  1.123301791742E+01 -1.108180189458E+01  1.293671056291E+01 -9.268003371324E+00  3.002648865828E+01       55
 O   2.225098573784E+01  2.015081676272E+01  2.238226522290E+01  0.000000000000E+00 -6.787449418079E+01  1.866110037929E+01  1.507511677269E+01  2.072758156450E+01  1.498669616167E+01 -6.146813050055E+01       56
 O   2.123194667032E+01  2.181418929249E+01  2.422410926963E+01  0.000000000000E+00  2.106852215856E+01  1.458577527498E+01  2.462437989740E+01  1.619713707009E+01  2.158277585987E+01  2.164628319844E+01       57
 O   1.664128852094E+01  2.119887422645E+01  1.819617375810E+01  0.000000000000E+00 -6.208809403173E+01  7.240860949500E-01 -1.340991667745E+01  6.215234006670E-01 -1.226402294449E+01 -7.909229472719E+01       58
 O   1.704901410214E+01  1.805864856435E+01  1.479263469172E+01  0.000000000000E+00  9.496386914876E+00 -5.252838782006E+00  1.817902080197E+00 -4.302831683104E+00  2.095193915587E+00  1.005875840676E+01       59
 H   2.679276867530E+00  8.415756563444E+00  1.469527106494E+01  0.000000000000E+00 -2.093175807457E+00 -1.205182144410E+01 -3.017366631758E+00 -2.104442798603E+01 -5.020764271470E-01 -7.641657369097E+00       70
 H   1.492271317220E+01  1.965272551244E+01  1.825718439530E+01  0.000000000000E+00 -1.250931893482E+00 -1.003535345314E+00 -2.411262344307E+00 -9.322742453709E-01 -1.970872154650E+00 -1.647436418143E+00       73
 H   1.578923326121E+01  1.143806597469E+01  1.770518204534E+01  0.000000000000E+00 -1.934615529276E+01 -2.945070789401E+00  4.780223632902E+01 -4.558726499580E+00  4.262936454839E+01 -1.401477810445E+01       83
 Si  2.159742614674E+00  2.145794589056E+01  2.143903257636E+01  0.000000000000E+00  6.146158278526E+00  2.500190003245E+01  3.032867893871E+00  2.497986303072E+01  1.837225460191E+00  1.812239924602E+01       89
 Si  2.719336318730E+00  2.073646376910E+01  1.852926716115E+01  0.000000000000E+00 -2.965213952761E+00 -9.785457504358E+01  5.564199208607E+01 -8.743889913505E+01  7.687095138104E+00 -3.542116770708E+01       90
 O   1.805506010889E+00  2.086007462390E+01  1.996623904313E+01  0.000000000000E+00  6.593400107460E+00 -1.683705655548E+01 -3.140615361526E+01 -1.611560370855E+01 -2.853517284006E+00  1.766695712839E+01       92
 O   9.267082574241E-01  2.095038267648E+01  2.228562972285E+01  0.000000000000E+00  1.010526521231E+02 -3.131559642262E+01  3.297621146536E+01 -3.331145770469E+01  1.113645509656E+01  4.898456910256E+00       95
 O   1.971705632102E+00  1.951907737840E+01  1.768220195629E+01  0.000000000000E+00  2.637139875435E-01  1.036541642790E+01  4.045162626456E+00  9.389961578921E+00 -2.795735038561E-01 -1.798597245223E+01       96
 O   4.245187656415E+00  2.050181099098E+01  1.866201267007E+01  0.000000000000E+00  1.103291975187E+01 -5.130358479437E+00  2.374602808032E+01 -4.669968667029E+00  5.401686681798E+00  5.328264702028E+01       97
 O   1.069926123809E+01  1.368349537139E+01  2.134613158532E+01  0.000000000000E+00  7.653883951595E+00  4.109683828660E+00  2.049518295607E+01  6.411070373441E+00  1.027274266033E+01  9.788702536948E+00       98
 O   3.605822025456E+00  1.250352115482E+01  2.034544707176E+01  0.000000000000E+00 -4.950315200446E-01  1.707949459576E+00 -2.041253499136E+01  2.779136764820E+00 -3.619974821711E+00 -3.779521678293E+00      101
 Ca  2.199980595392E+01  2.451752580504E+01  1.801277479373E+01  0.000000000000E+00 -7.504273623835E-01 -5.581216958454E+00  2.023701534339E+01 -4.100462866727E+00  2.471637022832E+01 -8.363083865640E-01      102
 O   1.637772723451E+01  4.004198694635E+00  1.218533014836E+01  0.000000000000E+00 -3.423737126120E+01 -6.478689073166E+00 -4.683768814119E+01 -1.971554643152E+01 -6.295232639014E+01 -8.370711964416E+00      105
 Si  5.851346658483E+00  1.611819558090E+01  2.021925790339E+01  0.000000000000E+00  1.883462054192E+00 -7.992326836850E+00 -1.185429331653E+01 -1.002586900943E+01 -3.430570000037E+00  5.188209062038E+00      107
 Si  8.708731012609E+00  1.655060627493E+01  2.139759552893E+01  0.000000000000E+00 -2.657479098643E+01  1.764468029124E+01 -4.492796960276E+01  2.281207865365E+01 -1.828549388571E+01 -5.050436186606E+01      108
 Si  7.698635487858E+00  1.930935372749E+01  2.049492305611E+01  0.000000000000E+00 -1.574094406494E+00  3.757009310689E+01  3.946732393740E+01  3.987684820028E+01  1.482535649651E+01 -3.948069205692E+00      109
 O   7.522501628143E+00  1.622756560131E+01  2.021531094537E+01  0.000000000000E+00  1.834359277244E+00 -5.881454877245E+00  1.893506215658E+01 -7.326757572624E+00  7.046096707927E+00  3.957085950834E+00      110
 O   5.197145732022E+00  1.703695312171E+01  1.902529403324E+01  0.000000000000E+00  7.460699848419E-01  4.459529828193E+00 -4.096174603408E+00  4.979990590174E+00 -1.118953342878E+00  2.445719249116E+00      111
 O   5.205882843669E+00  1.650701023928E+01  2.162133403467E+01  0.000000000000E+00 -3.652853657947E+00  1.377532953610E+01  1.705100603099E+01  1.804330384608E+01  4.105460820397E+00 -1.158260655206E+01      112
 O   5.517409605380E+00  1.450357269562E+01  1.997154942050E+01  0.000000000000E+00 -5.161848261390E+00 -2.145620217822E+01  1.231891971243E+01 -2.954538244966E+01  3.403267544153E+00 -1.356891129305E+01      113
 O   8.711839801324E+00  1.571231706465E+01  2.279012226156E+01  0.000000000000E+00 -8.055281800435E+00 -5.412703196188E+00  3.910658016680E+01 -7.850921484028E+00  1.494903176388E+01 -1.452817597430E+01      114
 O   1.255912739610E+01  1.265191772900E+01  3.630319222507E+01  0.000000000000E+00 -1.109977962384E+01  6.062628616166E+00 -2.655021646463E+00  1.739600088747E+01 -9.185075210635E-01 -1.118178788873E+01      115
 O   8.471776277483E+00  1.817632887886E+01  2.152116146364E+01  0.000000000000E+00 -3.421255558994E+00  1.928930131778E+01 -4.136443024999E-01  2.283894459368E+01 -1.628305235828E-01 -7.340357462481E+00      117
 O   6.131797896024E+00  1.971507371978E+01  2.089037044632E+01  0.000000000000E+00  2.481652889698E+00 -9.375127778962E+00  7.802142238725E+00 -9.934017750466E+00  2.290105840240E+00  7.979057773421E+00      118
 O   6.671438225965E+00  1.007652309216E+01  2.254170607496E+01  0.000000000000E+00  1.413309668446E+01 -3.359753153430E+01 -5.668353082107E+01 -7.515942490915E+01 -1.677604494730E+01  2.134659278570E+01      119
 Ca  2.296528738016E+01  1.883373894008E+01  2.087728368566E+01  0.000000000000E+00 -3.496041162170E+00  1.210509065199E+01 -3.671191400425E+00  1.341854702278E+01 -4.038358955492E+00 -2.867089162967E+00      120
 Ca  3.187372844057E+00  1.270718932361E+01  1.762204722700E+01  0.000000000000E+00 -4.220074996692E+00  4.800736349461E-02  9.738757390030E+00  6.657554280508E-02  4.781982660040E+00  4.004830719639E+00      121
 Si  1.388954289908E+00  1.692213434385E+01  1.460385285693E+01  0.000000000000E+00 -2.873075120895E+00  3.733843035705E+01 -3.195494244599E+01  3.222317774832E+01 -3.646724397934E+00 -1.408461233988E+01      125
 Si  2.610310212837E+00  1.903701255449E+01  1.615374976229E+01  0.000000000000E+00 -7.204492048618E+00 -3.909280830461E+01  4.550024493562E+01 -3.317198226614E+01  6.715001077337E+00 -5.131600906826E+01      126
 Si  3.016326940139E+00  2.091811714194E+01  1.392773597840E+01  0.000000000000E+00  5.187183256896E+00  2.283502117924E+01 -6.340444640051E+00  1.520405225230E+01 -9.398313833876E-01  4.987227042302E+01      127
 O   1.209649529728E+00  1.842822995155E+01  1.549516855894E+01  0.000000000000E+00  5.797668671541E+00 -2.460234975379E+01 -1.854770344051E+00 -2.068660730755E+01  1.514798847057E+00 -5.853275070796E+00      128
 O   2.994829503224E+00  1.691228929922E+01  1.462013161711E+01  0.000000000000E+00  2.005588125679E+00 -1.522127774447E+00 -9.842638632659E+00 -1.315830636926E+00 -1.963780010378E+00  1.057219194463E+01      129
 O   8.947702437559E-01  1.551406433947E+01  1.524775926463E+01  0.000000000000E+00  4.621598331643E+00 -8.200579749641E+00  7.698540614424E+00 -8.059813541888E+00  6.888903085021E+00 -5.038322065441E+00      131
 O   3.865051353492E+00  1.828615516651E+01  1.677228801657E+01  0.000000000000E+00  5.285967112699E+00 -1.492245276434E+01 -2.022309011224E+01 -1.368705850947E+01 -4.660263509240E+00  2.500872717786E+01      132
 O   2.009648711263E+00  4.612386247429E+00  9.251975135149E+00  0.000000000000E+00  1.707154999467E+01 -3.161634359195E+00 -2.027467794946E+01 -6.039522422486E+00 -1.913746614428E+00 -2.947797757729E+00      133
 O   3.026352013368E+00  2.036984238981E+01  1.548679247422E+01  0.000000000000E+00  3.242734805567E-01  4.369758554725E+01 -2.125275715701E+01  3.322241900770E+01 -3.993653258295E+00  9.090747334314E+00      134
 O   1.471416740956E+00  2.098328505406E+01  1.335558597520E+01  0.000000000000E+00  2.540397719770E+01 -5.445908043065E+00  2.176914585713E+01 -3.466249107079E+00 -1.570063035298E+01  1.402450177795E+01      135
 O   8.016385259432E+00  1.619655080605E+01  1.282999058827E+01  0.000000000000E+00  1.842569641068E+01 -6.390643976785E+00  1.635327767462E+01 -5.062306355037E+00  1.021779191437E+01  3.722784252431E+01      136
 Si  9.212208977008E+00  1.385728299003E+01  2.599165042151E+01  0.000000000000E+00 -1.984591208004E+01  3.397266138311E-01 -2.150464178139E+00  6.372140477998E-01 -7.621880521365E-01 -2.985282037942E+01      139
 Si  8.487036148984E+00  1.606587079071E+01  2.435596524913E+01  0.000000000000E+00  2.604429594661E+01 -3.114559307319E+01  6.051374119326E+01 -4.721692290670E+01  2.108651017376E+01  4.930158021814E+01      140
 O   8.010598664804E+00  1.456053966977E+01  2.524096582044E+01  0.000000000000E+00 -3.047817602460E-01  5.729599354465E+01 -5.850701414144E+01  9.932366845651E+01 -1.856807749344E+01 -5.539894203143E-01      142
 O   7.783651704227E+00  1.265905760469E+01  2.644777331928E+01  0.000000000000E+00  2.441508541724E+01 -6.787530733643E+00  3.607776646153E+01 -1.418076130521E+01  1.061778490813E+01  3.970783694656E+01      143
 O   7.187761390789E+00  1.694650587694E+01  2.447330144065E+01  0.000000000000E+00  7.508452151427E+00 -3.009308779542E+01 -1.027165969568E+01 -4.345894158035E+01 -3.016766624600E+00  1.770259495174E+01      148
 O   1.300475515495E+01  1.524996164305E+01  7.186667491097E-01  0.000000000000E+00  9.897006728511E+00  3.179755587556E+00  9.438413361065E+01 -4.846222695642E+01 -1.575700867689E+01  1.160567586183E+01      150
 Ca  5.860423536864E+00  1.091016591684E+01  7.991859229440E+00  0.000000000000E+00  8.440619841819E-01  5.606454440492E+00  2.748484425869E+00  4.106811482630E+00  2.015461278488E+00  1.571363611110E+00      151
 Ca  1.300650223154E+01  2.235311664660E+01  1.759505902045E+00  0.000000000000E+00 -3.092131327000E+00  8.076626860843E+00 -2.027871543069E+01 -3.775853680939E+00 -1.040894110648E+01 -5.314170636239E+00      152
 H   7.257907358105E+00  1.990739253033E+01  1.466701422370E+01  0.000000000000E+00 -5.590595814460E+00 -1.743260693479E+01  4.026273577877E+01 -1.284368575539E+01  1.992383738157E+01 -1.533419756765E+01      155
 H   1.238071355755E+01  1.175743321853E+01  3.596461821928E+01  0.000000000000E+00 -3.062651853908E+00 -5.058435786001E+00 -1.134431686060E+01 -1.547316565180E+01 -3.905247560277E+00 -2.908469247475E+00      156
 H   1.757543896468E+01  1.782745012083E+01  1.561590803124E+01  0.000000000000E+00 -1.950344723434E+01  1.600799083147E+01 -1.499031546318E+01  1.402215745353E+01 -1.687134516657E+01 -1.978310376504E+01      159
 H   1.703504174040E+01  3.629737775716E+00  1.153753365790E+01  0.000000000000E+00  2.923900719253E+00  3.120498086201E+00  7.534689768370E+00  9.518139242790E+00  1.112488669684E+01  5.708369498134E-01      160
 H   1.604959929771E+01  1.843489772003E+01  2.161561879412E+01  0.000000000000E+00  5.179951862229E+01 -3.380835621483E+00 -8.571496472823E+00 -3.964158364718E+00 -6.364337060200E+00  5.949798559050E+01      164
 H   1.777013006633E+01  8.537407559697E+00  2.472501742085E+00  0.000000000000E+00 -1.787008569485E+01 -1.539793856857E+01  6.609741251527E+00 -4.420561008097E+00  3.939900099488E+01 -8.585429827140E+00      168
 H   6.356375809194E+00  2.188649599152E+01  3.085538290155E+01  0.000000000000E+00 -9.883732925974E+00 -1.072638949990E+01  1.629254633654E+01 -1.512196631652E+01  3.356352690037E+00 -3.403201565784E+01      169
 Si  1.198012093408E+01  8.018643558113E-01  1.977731681998E+01  0.000000000000E+00  3.822170635323E+01 -1.194416579061E+02 -1.315729742270E+01 -4.211221082030E+00 -7.970040411671E+00 -5.855853825410E+01      177
 Si  1.074762379601E+01  3.531564310424E+00  1.893088062275E+01  0.000000000000E+00 -8.934167963746E+00 -2.753551409787E+00  4.069214026656E+01 -2.536277339709E+01  2.310213791714E+01 -3.363725481930E+00      178
 Si  7.919233801981E+00  3.930830640426E+00  2.011744149911E+01  0.000000000000E+00  2.031889026778E+01  7.504802591162E+00  9.463431052370E+00  3.840853013034E+01  3.725281024228E+00  1.008558636368E+01      179
 O   1.121982518292E+01  1.888950982906E+00  1.888886998753E+01  0.000000000000E+00 -6.688845580739E+00 -3.800635437789E+00 -1.226350160638E+01  5.487743919629E+00 -7.284413744437E+00 -1.603192701198E+00      180
 O   1.305222333903E+01  1.571294286485E+00  2.110883212796E+01  0.000000000000E+00 -2.421264697292E+01 -6.265404672831E+00 -3.161657804194E+01 -4.573481851945E+01 -1.954947745653E+01 -5.253860159091E+00      182
 O   1.102279949419E+01  3.934166464189E+00  1.732589075762E+01  0.000000000000E+00 -8.756074243130E-01 -5.935346766165E+00  4.586406547351E+01 -2.641464884050E+01  2.917889791498E+01 -3.532820471386E-01      184
 O   1.144919115158E+01  4.069641769306E+00  2.033389338341E+01  0.000000000000E+00 -3.997224873675E+00  2.407662580277E+00 -3.796625876703E+01  1.046775328064E+01 -2.137726139003E+01 -1.424657994963E+00      185
 O   9.112909342672E+00  3.339162172541E+00  1.914023488058E+01  0.000000000000E+00  5.106064712399E+00  2.645965179720E+00 -1.249085721511E+01  1.560898704323E+01 -5.947056037907E+00  1.832944187278E+00      187
 O   6.642446486580E+00  4.378505703613E+00  1.938524612542E+01  0.000000000000E+00 -1.134208216952E+01  2.147788981115E+00 -2.968470527171E+00  9.610454120381E+00 -1.017160499080E+00 -7.482259455048E+00      188
 Ca  1.167779999917E+01  2.988157278650E+00  2.243203601521E+01  0.000000000000E+00  3.338238103271E+00 -5.203996789820E+00 -6.219842655555E+00 -1.119334692781E+01 -3.237961926801E+00  8.147177808592E-01      190
 O   1.514675114152E+01  2.063230818830E+01  8.728299112457E+00  0.000000000000E+00  5.155088895475E+00 -2.635967564128E+01  1.057644596227E+01 -1.115120670962E+01  1.835395337490E+01  7.022059175316E+00      193
 O   4.693614318631E+00  1.193620460180E+01  1.273202330064E+01  0.000000000000E+00  5.220947866946E+00  9.742367627545E+00  2.503934106420E+01  1.039191734520E+01  9.254644344997E+00  1.376258602064E+01      194
 Si  1.757280834767E+01  1.707483301296E+00  1.985294730350E+01  0.000000000000E+00  3.184646757614E+01 -3.545237777502E+00  2.331702819342E+01 -4.435635598481E+00  2.063903466906E+01 -2.235452733109E-01      196
 Si  1.537378798565E+01  3.626588797876E+00  1.979981957815E+01  0.000000000000E+00 -2.102917874343E+01 -3.543348177614E+00 -1.562574359238E+01 -2.044019095661E+01 -1.213278071344E+01 -5.049396219412E+00      197
 O   1.883745013969E+01  2.724616786931E+00  2.043792438045E+01  0.000000000000E+00  4.032650840727E+00 -3.965289038396E-01 -3.044247971939E-01 -1.214778028962E+01 -2.805855835298E-01  1.088969573932E-01      202
 O   1.618998231948E+01  2.221912270221E+00  2.048799636517E+01  0.000000000000E+00 -1.649750549135E+01  2.831267021993E+00 -1.953608483531E+01  2.989623559677E+01 -1.543776474957E+01 -2.344599010394E+00      205
 O   1.461895188826E+01  4.724203007790E+00  2.075264212681E+01  0.000000000000E+00  4.451432273237E+00 -2.005830730677E+00  3.571184756247E+00 -8.811282506711E+00  2.515678621384E+00  1.438507349566E+00      206
 Ca  1.332844121901E+01  5.362823944251E+00  1.890885560860E+01  0.000000000000E+00  3.416126784576E-01 -1.024506344302E+00  1.257015503749E+01 -3.612321182994E+00  8.860428996815E+00  1.374510808570E-01      209
 O   2.257231949354E+01  1.877901451049E+01  1.394329974931E+01  0.000000000000E+00  7.714026272300E+00 -4.015054803865E+01  1.990367649872E+01 -2.981152850643E+01  3.222136460541E+01  6.417675035271E+00      210
 O   1.306594726587E+01  1.736979576772E+01  4.381174832327E+00  0.000000000000E+00  7.673862379474E-01  1.459787450481E+01 -2.425478223220E+00  3.681103040903E+00 -7.345585278322E+00  1.020158887593E+00      212
 Si  1.303018057222E+01  3.935632421686E+00  1.409815785619E+01  0.000000000000E+00 -9.024581237391E+00 -1.853684804283E+00 -7.027142585454E+00 -4.650388242657E+00 -6.494815686504E+00 -2.602588755838E+00      213
 Si  1.159043989326E+01  5.158066026618E+00  1.651612614698E+01  0.000000000000E+00 -9.880141451712E+00  2.013649355149E+01 -3.516223711591E+01  6.447704739294E+01 -2.467562866606E+01 -4.396935960117E+00      214
 Si  9.756104713700E+00  6.960728286758E+00  1.469782195116E+01  0.000000000000E+00  2.904649572907E+00 -2.779323567002E+01 -1.953847594337E+01 -5.868639206930E+01 -1.296922890229E+01  2.072392316255E+00      215
 O   1.274531380032E+01  4.560395744633E+00  1.556102514103E+01  0.000000000000E+00 -1.508274841961E-01  4.065052995615E+00  2.154011079211E+01  1.270104587195E+01  1.764250548090E+01 -1.384291535461E-01      216
 O   1.351251607986E+01  2.448315031181E+00  1.462710458983E+01  0.000000000000E+00 -7.419706023789E-01  1.325553805073E+01  1.840942999733E+01  3.938964733022E+01  1.700662747930E+01 -8.704057203210E-01      217
 O   1.378378929690E+01  4.980628962808E+00  1.320684068091E+01  0.000000000000E+00  1.175388564662E+01  1.660142759874E+00 -1.614652103386E+01  4.402102847037E+00 -1.685189131799E+01  4.247144382154E+00      218
 O   1.157577704035E+01  3.769877727632E+00  1.325323911631E+01  0.000000000000E+00  6.936462390673E+00  1.251946410520E+00 -8.771363702362E-01  4.401295304041E+00 -7.661172462614E-01  2.258994362453E+00      219
 O   1.212114874608E+01  6.616631426311E+00  1.745201041002E+01  0.000000000000E+00 -9.513828357027E+00 -1.594823878591E+01 -2.235824132195E+01 -4.206503451386E+01 -1.552873063887E+01 -5.193360547776E+00      220
 O   1.021734278258E+01  5.628072815022E+00  1.568125411380E+01  0.000000000000E+00  1.261923941611E+01  6.987801994866E+00  6.803613846441E+00  1.946980829494E+01  4.432990775157E+00  6.951122206173E+00      222
 O   1.080623150459E+01  7.253545573295E+00  1.355104431558E+01  0.000000000000E+00 -7.397815932118E-01  1.905690322993E-02 -7.631780114504E-01  3.560202904595E-02 -6.085935577278E-01 -4.965689933966E-01      223
 O   2.142087807165E+01  2.069636568397E+01  1.263735319715E+01  0.000000000000E+00  4.849285670518E+00 -1.556484746432E+01  2.125325332257E+01 -9.504010407912E+00  3.602521358280E+01  4.685269633083E+00      224
 Ca  1.598329732113E+01  6.592780733919E+00  6.488732492208E+00  0.000000000000E+00 -7.074307614615E+00  4.219251470323E+00 -1.203867346991E+00  4.152662618889E+00 -2.965412700443E+00 -2.918006091633E+00      225
 Ca  1.688203855909E+01  4.177145147973E+00  1.699770787973E+01  0.000000000000E+00  1.048312061394E+00 -7.273281956477E+00 -2.460443130992E+01 -2.461113249852E+01 -2.443699827281E+01  7.642382861969E-01      226
 Si  2.041639486537E+01  2.339544939438E+00  2.024230038543E+01  0.000000000000E+00  2.331209721484E+01  3.042628858807E-01 -5.560530559318E+01  6.079992583219E+00 -5.608354060475E+01  4.123663380794E+00      228
 Si  2.267290843133E+01  4.658839560706E+00  2.069183141034E+01  0.000000000000E+00 -3.457015686474E+01  7.598963917707E+00 -1.489923658983E+01  3.375686122009E+01 -1.632571908203E+01 -7.103627332109E+00      229
 O   2.130956336201E+01  1.280152079794E+00  2.104353941024E+01  0.000000000000E+00  7.154868137226E-01  3.055643262620E+01  1.322033263028E+01 -6.463747075161E+00  1.338745875205E+01 -1.552752924812E+01      230
 O   2.139169706921E+01  3.686282964427E+00  2.042872426750E+01  0.000000000000E+00 -9.422069591014E+00  3.032844521849E+00 -1.560182027335E+01  1.415241592160E+01 -1.633726162464E+01 -1.745149611873E+00      236
 O   2.330899198650E+01  3.958064694287E+00  2.210428632050E+01  0.000000000000E+00 -4.330617542405E+01  6.881858280477E+00  3.937971986672E+01  4.248604358594E+01  4.152595390300E+01 -7.445641497850E+00      237
 H   1.256124281181E+01  1.655328150787E+01  4.459672662488E+00  0.000000000000E+00 -8.125681057325E-01 -1.132956297107E+01  6.179826527988E-01 -3.067768493988E+00  1.512149512075E+00 -1.070807148625E+00      243
 H   1.815891600848E+01  1.861350332330E+01  6.980282849046E+00  0.000000000000E+00 -9.545422973091E+00  2.706285330494E+01  6.143047872807E+00  1.014888855094E+01  1.598088398003E+01 -9.784381520842E+00      247
 H   1.415096567829E+01  6.732464434919E+00  9.239833126598E+00  0.000000000000E+00  4.880462427442E+00  2.012318225298E+00  2.407175913886E+01  2.761764993948E+00  3.686631919892E+01  2.321929150682E+00      248
 H   6.307525720330E+00  7.569483009090E+00  7.572998123375E+00  0.000000000000E+00 -5.029025477751E+00 -2.772505716076E+00 -3.123243507814E+00 -2.773793211462E+00 -2.601339447792E+00 -6.035191070791E+00      249