     8448
Lattice="     49.70      0.00      0.00      0.00     49.70      0.00      0.00      0.00     49.70" pbc="T T T" config_type=md Properties=species:S:1:pos:R:3:charge:R:1:forces:R:3:id:I:1
 Si  1.102268670857E+01  1.761949794300E+01  1.682009128565E+01  0.000000000000E+00 -2.038824217979E+00 -4.994736638116E+01  6.373132946647E+00 -4.768122591953E+01  4.176496228823E+00 -3.259011170741E+00        1
 Si  1.269428555340E+01  2.021049738453E+01  1.686578581293E+01  0.000000000000E+00 -4.390753364962E+00 -1.358528909978E+01  3.010549573521E+01 -1.133700827864E+01  2.265935093854E+01 -6.990492613812E+00        2
 Si  1.088116309985E+01  2.251291964490E+01  1.792000654359E+01  0.000000000000E+00 -2.021168795944E+01  1.613902923610E+01 -1.725809442331E+01  1.284646834262E+01 -1.047924506924E+01 -4.181759824231E+01        3
 O   1.150078887964E+01  1.909746323166E+01  1.669382362424E+01  0.000000000000E+00  2.483028452989E+01  7.711799907914E+01  1.281564270066E+01  6.741179492088E+01  8.829013914059E+00  4.123155818298E+01        4
 O   9.754526242222E+00  1.772737767437E+01  1.581237685574E+01  0.000000000000E+00 -6.924590710165E+00  1.900599363101E-01 -4.274764543274E+00  1.695287026270E-01 -2.637067361669E+00 -1.258439740806E+01        5
 O   1.222004232788E+01  1.654788591507E+01  1.648531065299E+01  0.000000000000E+00 -1.675738170043E+01  7.741407143981E+00 -5.530858111760E+00  7.712133278823E+00 -4.099851174048E+00 -2.269216694785E+01        6
 O   1.025159284081E+01  1.766543228256E+01  1.828349967677E+01  0.000000000000E+00 -6.124161733102E-01 -3.600159692546E+01  2.085311727947E+01 -3.726119888952E+01  1.169238228950E+01 -1.055308829208E+00        7
 O   1.273522328482E+01  2.077441516734E+01  1.539115953905E+01  0.000000000000E+00  9.862759963585E+00  1.670452790862E+01 -3.298275497016E+01  1.237589852687E+01 -2.729116984512E+01  1.608869083776E+01        8
 O   1.414971805962E+01  1.984874134927E+01  1.776154833509E+01  0.000000000000E+00 -2.089226498771E+01  1.552888173771E+00 -3.447551652609E+01  1.389594326011E+00 -2.746488254293E+01 -2.930695595449E+01        9
 O   1.216961663571E+01  2.155995394601E+01  1.765737600368E+01  0.000000000000E+00 -3.902680722420E+00 -5.293164310188E-01  2.032104067818E+01 -4.335046016718E-01  1.400543742403E+01 -6.914072904683E+00       11
 O   1.912083124455E+01  1.799045991303E+01  2.155092675586E+01  0.000000000000E+00  1.093457219359E+01  7.321878152730E+00 -1.609060340611E+00  8.770940851297E+00 -1.427621725212E+00  1.028815014363E+01       13
 Ca  4.264211621261E+00  1.581866770021E+01  1.625726095983E+01  0.000000000000E+00 -3.669099895538E+00 -1.966874299864E+00 -1.145400922350E+01 -2.021408463347E+00 -3.003634164831E+00 -1.325166051655E+01       14
 Ca  2.074160855146E+01  1.440131064658E+01  1.867994840491E+01  0.000000000000E+00 -2.519776282554E+01  3.155922732469E+00  2.226671188735E+00  4.093549209454E+00  2.472423433322E+00 -1.749530703703E+01       15
 O   7.568385035335E+00  3.878442857390E+00  1.557522318007E+01  0.000000000000E+00  1.714644290923E+01 -4.626591452664E+00  3.967771792332E+01 -2.051738247816E+01  1.928038160965E+01  9.358145212054E+00       16
 O   9.527965470889E+00  1.613832717234E+01  2.100096728239E+01  0.000000000000E+00 -2.195344465314E+01  1.504060800074E+01 -1.944267726846E+01  1.957249429620E+01 -8.820982156896E+00 -3.718442026839E+01       18
 Si  2.031714933180E+01  1.949120087422E+01  1.839475860108E+01  0.000000000000E+00 -9.190605812467E+00  7.722746307992E+01 -5.499457880260E+01  7.288317173967E+01 -6.074192623035E+01 -8.816982201645E+00       19
 Si  1.828812798950E+01  2.156307892156E+01  1.910142312285E+01  0.000000000000E+00  9.861072872080E+00  3.940607477240E+01 -8.045244263026E+00  3.490745039595E+01 -7.702696068391E+00  1.162694687581E+01       20
 O   1.893423157703E+01  2.013332998342E+01  1.904119875768E+01  0.000000000000E+00  5.673903445904E+00 -4.209321682235E+01 -8.953246603922E+00 -3.980987290847E+01 -8.902950214548E+00  6.033229809496E+00       22
 O   2.128874357193E+01  2.084985138936E+01  1.813970400903E+01  0.000000000000E+00  2.381079494309E+00 -1.090939745167E+01  9.353787507968E+00 -9.491350177738E+00  1.097759828850E+01  2.331990774131E+00       23
 O   2.023350049812E+01  1.910697558842E+01  1.685235481460E+01  0.000000000000E+00 -9.548251319749E+00 -2.119926554616E+01 -2.397411628292E+01 -1.869775481419E+01 -2.878412536935E+01 -9.016640738734E+00       24
 O   2.102305960418E+01  1.851028212362E+01  1.936908447228E+01  0.000000000000E+00  1.467744565203E+01 -5.470951651717E+01  6.736529480139E+01 -5.724781717435E+01  7.311778777619E+01  1.292312655666E+01       25
 O   1.873334878500E+01  2.213626784113E+01  2.054254219811E+01  0.000000000000E+00 -1.129657737708E+01  7.396980881141E+00 -1.496476655275E+01  6.864426875391E+00 -1.364681102345E+01 -1.334860442610E+01       26
 O   2.146289704700E+01  1.651846015506E+01  2.138732086490E+01  0.000000000000E+00 -3.423194900747E+01  3.807557929725E+01  1.547715598981E+01  4.929845905143E+01  1.553184747580E+01 -2.634588818423E+01       27
 O   1.917867009156E+01  2.255480455374E+01  1.792889103047E+01  0.000000000000E+00  7.709582223391E-01 -1.839755769850E+01  2.005315768024E+01 -1.462428133293E+01  2.145101416422E+01  9.066745473459E-01       29
 Ca  5.402892547862E+00  9.566718401261E+00  1.469141771597E+01  0.000000000000E+00 -1.842787889334E+00  8.220306653152E+00 -4.147614829917E+00  1.262376017872E+01 -1.525320271277E+00 -3.262961951278E+00       32
 Si  1.402807145707E+01  1.977595114101E+01  1.229201531936E+01  0.000000000000E+00 -2.598668745113E+01 -1.424637194136E+01 -2.289027471837E+01 -8.855029065346E+00 -2.612317029214E+01 -3.663450552864E+01       37
 Si  1.217515159060E+01  2.152393398486E+01  1.405271346249E+01  0.000000000000E+00  3.552963212928E+01  1.158873466370E+01 -3.245581106438E+01  7.566143240192E+00 -2.811943905063E+01  6.281132935113E+01       38
 O   1.247211953458E+01  2.030677881980E+01  1.275862288313E+01  0.000000000000E+00 -4.889976961485E-03  3.915684800040E+01  2.209438085373E+01  2.460200415646E+01  2.159823686101E+01 -7.961732592085E-03       40
 O   1.414037961289E+01  1.837435793863E+01  1.316428265538E+01  0.000000000000E+00 -6.074056420554E+00 -2.530598290678E+01  1.601998109334E+00 -1.813043552160E+01  1.720782058402E+00 -7.892778685299E+00       41
 O   1.541409250527E+01  2.058039525796E+01  1.228566331322E+01  0.000000000000E+00 -2.039777902760E+01  5.360045132411E+00  1.214335910401E+00  3.199730083657E+00  1.523555186089E+00 -2.723445150137E+01       42
 O   1.338124192081E+01  1.903721275869E+01  1.082029385319E+01  0.000000000000E+00  2.923625176545E+01  1.423649505833E+01  8.768433448767E+00  8.091681378114E+00  1.084374702170E+01  4.159380335690E+01       43
 O   1.311677565535E+01  2.283354157804E+01  1.357913903614E+01  0.000000000000E+00  1.078931911761E+01 -5.197880142673E+01  8.257769426652E+00 -3.091186573458E+01  7.976596210905E+00  1.878193034202E+01       44
 O   1.067912833722E+01  2.210666214471E+01  1.395644612014E+01  0.000000000000E+00  1.007382989863E+00 -3.147350568665E+01  5.822179098569E+00 -1.986995067154E+01  4.454987842942E+00  2.085364526391E+00       46
 O   8.094571007410E+00  2.168434746437E+01  1.456969843352E+01  0.000000000000E+00  7.838257968345E-01 -2.246276586880E+01  1.065880983237E+01 -1.509271723436E+01  5.921776173767E+00  2.099771675921E+00       47
 O   1.636120289720E+01  1.557191116326E+01  1.127776081594E+01  0.000000000000E+00 -2.530184299195E+01  2.836825608917E+00  6.741625116890E+00  2.054535269209E+00  9.780407493514E+00 -2.408123985828E+01       48
 Ca  6.282749745817E+00  2.064269469461E+01  1.373277797562E+01  0.000000000000E+00  1.542225986715E+00  1.502688726895E+00 -4.088209762239E+00  9.996800785074E-01 -1.870357104014E+00  5.067160317035E+00       49
 Si  2.054341201053E+01  2.000667999267E+01  2.348233713615E+01  0.000000000000E+00 -4.785808387021E+00  3.499289616208E+01  1.061095052315E+00  4.107203120902E+01  9.282940073496E-01 -4.660770900973E+00       51
 Si  1.958403500709E+01  2.222481916251E+01  2.186663046729E+01  0.000000000000E+00  3.362689828540E+01  3.760168106944E+01  2.291913871822E+01  3.699566952073E+01  2.052667491049E+01  3.816127438083E+01       52
 O   1.935672756970E+01  2.103516305679E+01  2.290719835724E+01  0.000000000000E+00 -1.416763772775E+01 -2.324442601580E+01  7.160184278572E+00 -2.531307582482E+01  6.050401025377E+00 -1.539612357821E+01       54
 O   1.981182679830E+01  1.882925645687E+01  2.441500605047E+01  0.000000000000E+00  4.695109866999E+00 -1.223594784938E+01 -3.408831733755E+01 -1.586577470332E+01 -2.766134227209E+01  4.462255231632E+00       55
 O   2.160867444828E+01  1.954216331250E+01  2.237010485126E+01  0.000000000000E+00  2.513896568561E+00 -8.985653800829E+00  2.010719261670E+01 -1.028596550276E+01  1.942278689402E+01  2.273484077477E+00       56
 O   2.105358589705E+01  2.091755377742E+01  2.476440314579E+01  0.000000000000E+00  3.245059751164E+01 -1.268016548245E+00 -3.097535105948E+01 -1.501211534121E+00 -2.633385550958E+01  3.224092664680E+01       57
 O   1.690464574872E+01  2.212098158423E+01  1.871901205108E+01  0.000000000000E+00 -3.099172425403E+01  4.371353997647E+00 -6.746767825027E+00  3.699086672528E+00 -6.092827961206E+00 -4.055496765077E+01       58
 O   1.565465306329E+01  1.331617397437E+01  1.270567064171E+01  0.000000000000E+00  1.266808379582E+01  9.742192864875E+00 -2.218076031220E+01  9.295544959637E+00 -2.732890826146E+01  1.077573594669E+01       59
 H   3.361688104579E+00  5.872773145034E+00  1.473689240277E+01  0.000000000000E+00 -1.109741132374E+00 -7.790011957465E+00 -4.492888343673E+00 -1.954793164973E+01 -8.106995984635E-01 -2.536313299942E+00       70
 H   1.463121262894E+01  1.908593588736E+01  1.736704416669E+01  0.000000000000E+00 -3.675726314567E+00  7.715724421662E+00  5.638470532464E+00  7.020841293809E+00  4.750241922041E+00 -4.794864141373E+00       73
 H   1.363527658843E+01  8.658356783721E+00  1.602555641694E+01  0.000000000000E+00 -5.928352079289E+00  1.151333382793E+01  4.276022664152E+01  2.130976874889E+01  3.638235715952E+01 -3.764484505255E+00       83
 Si  2.649262875639E+00  2.118924601991E+01  2.030407487212E+01  0.000000000000E+00  4.386543651735E+00  9.876314660979E+00 -1.256133295663E+01  9.463736092765E+00 -1.531784205233E+00  2.435436378596E+01       89
 Si  2.868872155151E+00  2.142678362217E+01  1.700840838445E+01  0.000000000000E+00  2.684523250515E+00  1.043305622176E+02  1.364072087509E+01  8.281676057719E+01  1.930755051041E+00  1.456167454517E+01       90
 O   2.875677553920E+00  2.168883126399E+01  1.864912253980E+01  0.000000000000E+00 -3.496264437251E+00 -1.100425886952E+01  2.275623671611E+01 -9.462002337498E+00  3.372383098954E+00 -3.320354239619E+01       92
 O   2.800851405984E+00  1.949746330724E+01  2.032439515488E+01  0.000000000000E+00  1.573127417210E+00  3.469303953207E+01 -4.578860539345E+00  3.616445039350E+01 -5.232072284514E-01  6.846150380297E+00       95
 O   2.326870925889E+00  2.007039818235E+01  1.647030536891E+01  0.000000000000E+00 -3.525876104993E+00 -3.696349024909E+01  5.412442825221E-01 -3.033322838801E+01  2.570070976227E-01 -5.629995203627E+01       96
 O   4.426806489204E+00  2.112385830082E+01  1.703574766789E+01  0.000000000000E+00  1.046330352053E+01  3.160167625967E-01 -1.372298472956E+01  2.548578839034E-01 -3.565971921886E+00  4.992884632865E+01       97
 O   1.180047240430E+01  1.309946156153E+01  2.164223707682E+01  0.000000000000E+00 -1.817362876379E+01 -1.043783390416E+00 -8.002914242547E+00 -1.724483673327E+00 -4.363604757583E+00 -2.017417127623E+01       98
 O   4.079712209728E+00  1.193593649969E+01  1.977157944631E+01  0.000000000000E+00 -1.688411420264E+00 -2.575399443237E+00 -9.323318154137E+00 -4.266084584085E+00 -1.920676848112E+00 -4.766071474310E+00      101
 Ca  2.126563709215E+01  2.281541269222E+01  1.904996732642E+01  0.000000000000E+00  6.760724045909E+00  1.106116708265E+01  7.607115672681E+00  9.235637082661E+00  8.491886544545E+00  7.253425257718E+00      102
 O   1.575196977465E+01  4.115784762803E+00  1.140196550437E+01  0.000000000000E+00 -3.903910800581E+01  1.245121887492E+01 -6.890650153990E+00  3.574937392839E+01 -9.519526516000E+00 -1.026636479432E+01      105
 Si  5.727237908942E+00  1.583506211193E+01  1.884842007358E+01  0.000000000000E+00  1.414594598732E+01  1.831001166316E+01 -2.074439145953E+01  2.179434402846E+01 -6.303343447417E+00  3.911168645386E+01      107
 Si  8.009157158560E+00  1.716152638290E+01  2.086477674237E+01  0.000000000000E+00 -5.590934591862E+00 -4.952073333938E+00 -1.589311901925E+01 -6.020671018365E+00 -6.100735681797E+00 -1.197990869748E+01      108
 Si  7.337402033097E+00  1.991533197439E+01  2.015611866792E+01  0.000000000000E+00 -1.314336448465E+01 -1.121212700789E+01 -1.698726127231E+01 -1.134768743908E+01 -6.183847567566E+00 -3.567399820693E+01      109
 O   7.123174122426E+00  1.659502542241E+01  1.956905099007E+01  0.000000000000E+00  6.765845629295E+00 -1.495362474655E+00  3.151308916351E+01 -1.763349182680E+00  1.147082816439E+01  1.576254887112E+01      110
 O   6.245098231517E+00  1.583955533806E+01  1.716348184863E+01  0.000000000000E+00 -1.001497990579E+01 -5.405526809643E+00  5.158604502150E+01 -5.857340013622E+00  1.877007948480E+01 -2.540117425642E+01      111
 O   4.730892576671E+00  1.713702546779E+01  1.900589023991E+01  0.000000000000E+00 -5.825872709261E+00 -9.364854753287E+00 -6.201671738681E+00 -1.038613158907E+01 -1.543702632243E+00 -2.110344451341E+01      112
 O   5.415799666539E+00  1.453285564296E+01  1.976087594309E+01  0.000000000000E+00 -1.167119984565E+00 -2.465263091422E+01 -2.731528723217E-01 -3.352111884512E+01 -7.486212853592E-02 -3.131871062088E+00      113
 O   7.140303067711E+00  1.713906506913E+01  2.235734010668E+01  0.000000000000E+00  9.006487070799E+00 -1.641777276182E+01 -2.512846321998E+01 -2.141643829168E+01 -8.025321534688E+00  2.161851765771E+01      114
 O   1.286833043292E+01  1.273572729326E+01  3.523833064239E+01  0.000000000000E+00  4.048840525400E+01 -5.540975865497E+00 -3.488591406613E+01 -1.533125946668E+01 -1.273963497911E+01  4.007118798682E+01      115
 O   8.354479678542E+00  1.877707523574E+01  2.061601304815E+01  0.000000000000E+00  6.826509486518E+00 -4.769047545504E+01  2.648131551412E+01 -5.236105473883E+01  1.073134809369E+01  1.534289233536E+01      117
 O   5.700767795057E+00  1.974131467320E+01  2.031949967719E+01  0.000000000000E+00  7.393203621749E+00  6.103235318459E+00 -1.177219407584E+01  6.281987301058E+00 -3.302765615831E+00  2.560208806724E+01      118
 O   7.356516029323E+00  9.841381308865E+00  2.153173730986E+01  0.000000000000E+00 -5.487181714795E+00  1.396116500601E+01  3.546257017514E+01  3.054531960652E+01  1.211611316728E+01 -7.340628002587E+00      119
 Ca  2.314038070187E+01  1.999504899965E+01  2.071212213115E+01  0.000000000000E+00 -5.706724817032E+00 -1.127814996172E+01  4.226082075850E-01 -1.168261300207E+01  4.721541689128E-01 -4.931044299321E+00      120
 Ca  2.560309675415E+00  1.239743807751E+01  1.818365363739E+01  0.000000000000E+00 -3.689865748108E+00 -1.376946864975E+00 -1.265494588429E+00 -2.019604753276E+00  1.496588562869E-01 -5.815876862444E+00      121
 Si  1.435802237944E+00  1.699564987786E+01  1.364237802847E+01  0.000000000000E+00  1.544665383237E+01 -2.311792456123E+01  1.861734607022E+01 -1.855671706374E+01 -1.449297178648E+00  8.326075152205E+01      125
 Si  2.691415244421E+00  1.937366202650E+01  1.501214507528E+01  0.000000000000E+00 -4.414546203251E+00 -2.983018808693E+01  1.496439408063E+00 -2.311463421688E+01 -4.647519148118E-02 -3.400047740155E+01      126
 Si  2.979786913984E+00  2.115166290543E+01  1.259332298641E+01  0.000000000000E+00  2.492203900938E+00  9.661956088485E+00  1.260011086557E+01  5.752556394588E+00  2.663932871700E+00  2.855681284136E+01      127
 O   1.270885958237E+00  1.838625815135E+01  1.447149191987E+01  0.000000000000E+00  2.484290976043E+01  3.138125867386E+01  1.442013536785E+01  2.469962227202E+01 -9.251753363293E-01  9.735832329062E+00      128
 O   2.745826237365E+00  1.711039185279E+01  1.263871566750E+01  0.000000000000E+00 -3.905573719043E-01  5.228650637292E+00 -1.425008415625E+00  3.862180907253E+00 -4.911814839136E-01 -5.926877598839E+00      129
 O   2.043424782317E+00  1.580484874512E+01  1.484836932137E+01  0.000000000000E+00  7.476472262347E-01 -1.022133104201E+01 -1.963866721504E+01 -9.602755503413E+00 -1.745784113558E+00 -3.089441576858E-01      131
 O   3.773974291740E+00  1.827610083439E+01  1.534014299735E+01  0.000000000000E+00  3.774429246664E+00 -3.314597157957E+00  1.846724368641E+00 -2.782124854881E+00  5.453107628060E-01  2.079651957018E+01      132
 O   2.903307016674E+00  4.133242178968E+00  9.507824553610E+00  0.000000000000E+00 -2.430501650072E+00  1.124565785011E+01  4.293324905665E+01  2.834228321381E+01  1.315361312404E+01 -4.867611016859E+00      133
 O   2.750441988713E+00  2.072063208197E+01  1.416819289576E+01  0.000000000000E+00  3.322760924797E+00 -2.540688248544E+01  1.311939904915E+00 -1.737252080485E+01  3.464892702482E-01  1.989375862155E+01      134
 O   1.530342527995E+00  2.099606942442E+01  1.195609911160E+01  0.000000000000E+00  1.628233136474E+01  1.931819389541E+01 -1.519732045304E+01  1.100064189167E+01 -1.146874222125E+00 -1.480522402000E+01      135
 O   8.153202571132E+00  1.525663023832E+01  1.319697331950E+01  0.000000000000E+00 -3.307617953714E+00 -2.739215986505E+01 -1.602331375739E+01 -2.369419703144E+01 -9.899339777541E+00 -6.189359782144E+00      136
 Si  8.711127291328E+00  1.421789797218E+01  2.543797719734E+01  0.000000000000E+00  1.713028993327E+01  5.126910543370E+01  2.793260142480E+01  9.172821028132E+01  9.565400766805E+00  2.795926478396E+01      139
 Si  7.960764552567E+00  1.688270157572E+01  2.378167423018E+01  0.000000000000E+00 -1.527060251347E+01 -1.140479481731E+01  3.357046350832E+01 -1.606526738572E+01  1.123749965304E+01 -3.238495792885E+01      140
 O   8.003957329805E+00  1.533802680941E+01  2.451983181088E+01  0.000000000000E+00 -8.408447517792E+00 -9.940889035599E+00 -9.637827174528E+00 -1.589180474336E+01 -3.146055733658E+00 -1.611315354882E+01      142
 O   7.915225174637E+00  1.283628312835E+01  2.550410956002E+01  0.000000000000E+00  5.196782999450E+00  1.105466179675E+00  1.983061047937E+01  2.196424796760E+00  6.154449224165E+00  8.427729655913E+00      143
 O   7.240389247949E+00  1.786705099923E+01  2.489532874540E+01  0.000000000000E+00 -1.850914766770E+00  2.717646450796E+01 -2.853100601544E+01  3.786674242394E+01 -8.297765066689E+00 -4.567487658551E+00      148
 O   1.275199916302E+01  1.633176559685E+01  1.172399366175E+00  0.000000000000E+00 -5.655533446089E+00 -4.804608561240E+01  3.461537438569E+01 -1.363355062541E+01  1.860576257084E+01 -7.243165984084E+00      150
 Ca  4.151782647370E+00  1.169244346692E+01  7.261336014099E+00  0.000000000000E+00  2.061208027576E+00 -1.471519115359E+00 -3.272709257503E+00 -9.138547283142E-01 -1.712194746238E+00  7.840891377496E+00      151
 Ca  1.251977714238E+01  2.211561675933E+01  2.314261257626E+00  0.000000000000E+00 -1.601993207120E+00 -9.579349100100E+00 -1.004112145207E+01 -5.738793833138E+00 -7.330757309369E+00 -2.829848120841E+00      152
 H   6.649607864874E+00  1.827860786285E+01  1.520146793495E+01  0.000000000000E+00 -4.986611377384E+00 -6.723516029593E+01 -5.526243520609E+01 -5.591635539253E+01 -2.417355516921E+01 -1.370732166224E+01      155
 H   1.299089804605E+01  1.178943001045E+01  3.534443791830E+01  0.000000000000E+00 -4.768067437799E+00 -1.635570691156E+00  7.229908002930E+00 -4.903403023160E+00  2.657362891595E+00 -4.327090948121E+00      156
 H   1.624104697052E+01  1.384942513393E+01  1.194631428246E+01  0.000000000000E+00 -3.761934869163E+01 -2.855086167814E+01  2.680676827295E+01 -2.462756131347E+01  3.644387485167E+01 -3.207960387269E+01      159
 H   1.621814062782E+01  3.346662041465E+00  1.143011764119E+01  0.000000000000E+00  4.632978243704E+01 -1.375455251935E+01 -1.411082375450E+00 -4.620316573966E+01 -2.002178203313E+00  9.442111744909E+00      160
 H   1.551944000066E+01  1.753799754314E+01  1.561185232387E+01  0.000000000000E+00  2.297684146488E+01  1.948109944331E+01  2.986058425057E+00  1.734154922006E+01  2.968382841751E+00  2.596535629786E+01      164
 H   1.871195335410E+01  5.514479855816E+00  4.984983570300E+00  0.000000000000E+00 -9.822315780960E+01 -1.232922162502E+01  6.679443154946E+00 -1.114537886479E+01  2.507238529157E+01 -2.894671736647E+01      168
 H   5.421660792042E+00  2.034366846382E+01  3.222625740370E+01  0.000000000000E+00  1.266696550618E+01 -1.067854353876E+01  5.755315727631E+01 -1.691580323327E+01  9.682591818041E+00  4.753018615230E+01      169
 Si  1.158260635262E+01  6.545657936865E-01  1.918262426376E+01  0.000000000000E+00  4.498538848761E-01 -1.833336958572E+02  3.727926436876E+00 -1.789572536931E+01  2.250948766767E+00 -5.323420484528E+01      177
 Si  1.077765697280E+01  3.322671801925E+00  1.864127471072E+01  0.000000000000E+00 -1.321649363880E+01 -7.224806632633E+00  3.155067563896E+01 -4.241149224620E+01  1.824136839210E+01 -4.302114553412E+00      178
 Si  7.992447951234E+00  3.871846088800E+00  1.972632774012E+01  0.000000000000E+00  1.667829817259E+01  1.520700879702E+00  3.403135615651E+01  7.747685021485E+00  1.378836681486E+01  8.079602637564E+00      179
 O   1.026249324547E+01  1.610473574910E+00  1.860903271544E+01  0.000000000000E+00  2.370975175212E+01  8.022663939463E+00  9.079126959226E+00 -3.794538617836E+00  5.006949072456E+00  5.942384674341E+00      180
 O   1.228263025768E+01  7.546096544101E-01  2.064056523099E+01  0.000000000000E+00 -1.965093960664E+01  1.288118997346E+01  1.894674966239E+01  6.797897462455E+00  1.127468739755E+01 -8.824630232773E+00      182
 O   1.131820964454E+01  3.873204918848E+00  1.725700632183E+01  0.000000000000E+00  7.154950357409E+00  9.438160109800E-02 -6.710809669749E+00  1.555715167308E+00 -4.401363093361E+00  2.338220051577E+00      184
 O   1.172044541049E+01  3.430510149390E+00  1.992312451661E+01  0.000000000000E+00 -4.505011189320E+00  2.929468718597E+00 -2.969439854785E+01  1.426705628356E+01 -1.746872469161E+01 -1.313474175164E+00      185
 O   9.214371464550E+00  3.820780025119E+00  1.847882640206E+01  0.000000000000E+00 -1.976030583176E+01  3.413813796595E+00  3.106937334806E+01  1.654325752783E+01  1.549258275232E+01 -8.192337992853E+00      187
 O   6.543152561460E+00  4.142953186126E+00  1.921487623728E+01  0.000000000000E+00 -2.003909163537E+00  4.997468790885E+00  1.216267687948E-01  2.297632761687E+01  4.141699868135E-02 -1.230191055659E+00      188
 Ca  1.361257611499E+01  2.542882173658E+00  2.093382556569E+01  0.000000000000E+00  4.701219302750E-01 -1.007191236453E+01  7.042253760512E-01 -3.539973413049E+00  4.579345281884E-01  1.281734643731E+00      190
 O   1.312464312601E+01  1.777089901597E+01  7.759627908492E+00  0.000000000000E+00 -4.166161980145E-01 -6.391056253044E+01 -3.739548772469E+01 -2.790642072823E+01 -6.325076881232E+01 -5.641025292841E-01      193
 O   6.273298837634E+00  1.108781175315E+01  1.320470125528E+01  0.000000000000E+00 -1.674223301146E+01  1.586137411821E+01 -6.887812334303E+00  1.888963407678E+01 -3.272266768878E+00 -2.959124581232E+01      194
 Si  1.827329865591E+01  1.734923808504E+00  1.982263875156E+01  0.000000000000E+00  4.050908230027E+01  9.992013767463E-01  4.836919351822E+01 -3.128261366887E+00  4.458865088456E+01  1.324186060544E+00      196
 Si  1.604604759430E+01  3.764531931512E+00  1.965061450282E+01  0.000000000000E+00 -8.830776043420E+00  4.097993318856E+00 -3.342802794770E+01  2.139126149253E+01 -2.729623174661E+01 -2.071771144896E+00      197
 O   1.971116442884E+01  2.646632402025E+00  2.002642374603E+01  0.000000000000E+00 -1.039433265590E+02  1.946069267699E+00 -2.664002762502E+00  3.354437848487E+00 -2.622065584774E+00 -1.416470318656E+01      202
 O   1.704141006656E+01  2.556930447479E+00  1.928221313012E+01  0.000000000000E+00  2.011279548169E+01 -2.237757082380E+00 -1.285163811987E+01 -2.312006673867E+01 -1.135813787297E+01  2.397664724052E+00      205
 O   1.601900965876E+01  3.745223458897E+00  2.118930555740E+01  0.000000000000E+00 -2.828991148821E+00  4.386185299722E+00  4.843366044761E+01  2.481566762763E+01  3.661560651045E+01 -6.614144220697E-01      206
 Ca  1.331425949114E+01  5.200578683995E+00  1.847756361505E+01  0.000000000000E+00  7.675074590222E+00 -2.140260884078E+00  1.838154363735E+01 -7.604308874330E+00  1.324507099172E+01  2.997900809921E+00      209
 O   2.257527497430E+01  1.867010437678E+01  1.417191451049E+01  0.000000000000E+00 -5.516900306609E+00 -8.366776184000E+00  4.414563589620E+01 -6.350968072546E+00  7.032217619817E+01 -4.562562568029E+00      210
 O   1.487552456409E+01  1.790959672989E+01  3.917180690092E+00  0.000000000000E+00 -1.425491167738E+01 -1.540091353734E+01  2.551253560225E-01 -3.224881727182E+00 -2.107177136317E+00 -1.716240112825E+01      212
 Si  1.408701255764E+01  3.470034475075E+00  1.491966659781E+01  0.000000000000E+00  2.468269827859E+01 -1.181389725109E+00 -4.866208985581E+00 -3.738664663703E+00 -4.594629956277E+00  5.844050734975E+00      213
 Si  1.167653504167E+01  4.713099289862E+00  1.594289124842E+01  0.000000000000E+00 -1.786398750244E+01  5.337305955908E+00 -2.487592496229E+01  1.805438060633E+01 -1.821906735674E+01 -7.210593426162E+00      214
 Si  1.027463512132E+01  5.952043906954E+00  1.344566743600E+01  0.000000000000E+00  4.407742120822E+00  5.747562593546E+00  3.960370875346E+01  1.298374414042E+01  3.026355209437E+01  2.553382609103E+00      215
 O   1.240896856024E+01  3.638066211542E+00  1.500754013615E+01  0.000000000000E+00  2.306970685261E+01 -1.625443774418E+00 -4.622816326324E+00 -4.779719401671E+00 -3.822370750483E+00  6.342189631455E+00      216
 O   1.483999286974E+01  4.362322438642E+00  1.627910478825E+01  0.000000000000E+00 -2.355803898439E+01 -1.132117226646E+01 -4.628514610511E+01 -4.224780543935E+01 -4.219342814665E+01 -6.925054679881E+00      217
 O   1.465086221394E+01  3.904938867854E+00  1.344668603762E+01  0.000000000000E+00 -1.841738585886E+01  1.055870051329E+00  2.169752501208E+01  9.825948846394E+00  2.364057942946E+01 -4.811343823801E+00      218
 O   1.442160479863E+01  1.733273737764E+00  1.468928065983E+01  0.000000000000E+00 -4.690040431723E+00  7.027857483257E+00  2.626695718980E+01  3.040830257801E+01  2.578830676778E+01 -2.742924479414E-01      219
 O   1.240438003785E+01  6.041557952939E+00  1.663955020324E+01  0.000000000000E+00  8.290085657364E+00 -1.613399659993E+00 -1.533392913970E+01 -4.443596312319E+00 -1.143107128492E+01  4.037689330781E+00      220
 O   1.039343874309E+01  5.172417321533E+00  1.492834051053E+01  0.000000000000E+00  5.697870324085E+00 -2.245995187437E+00  2.599419949224E+01 -6.482265227034E+00  1.809773296018E+01  2.835612340501E+00      222
 O   1.163288685734E+01  6.177467217173E+00  1.281478407748E+01  0.000000000000E+00  2.766061998395E+01  2.951487128575E+00 -1.809063081416E+01  6.122682473328E+00 -1.642214649632E+01  1.468875054430E+01      223
 O   2.110418494065E+01  2.192589917272E+01  1.248186323661E+01  0.000000000000E+00  2.399894307645E+01 -4.451767787819E+00  3.815753733758E+00 -2.534279495267E+00  6.451630734826E+00  2.493336784272E+01      224
 Ca  1.544522180289E+01  8.294444542633E+00  6.503239480159E+00  0.000000000000E+00 -8.631276667619E+00  4.738421625361E+00  1.779050143838E+00  3.715148184944E+00  4.225251761660E+00 -4.635196992657E+00      225
 Ca  1.708230558700E+01  4.773853881559E+00  1.626191844331E+01  0.000000000000E+00 -8.707698560453E+00  9.401522395927E-01 -2.045612267856E+00  3.240891553000E+00 -2.148810055458E+00 -2.431560280979E+00      226
 Si  2.123698172475E+01  2.637782276859E+00  2.002249825989E+01  0.000000000000E+00  9.628503316986E+01  2.058487243049E+00 -2.583012636535E+01  1.228215557539E+00 -2.739687697553E+01  1.455068717901E+01      228
 Si  2.287719427527E+01  4.942927542276E+00  2.118915614494E+01  0.000000000000E+00  5.707887390688E+00  1.194540438481E+01 -4.295213025583E+01  5.120711087900E+01 -4.637391983325E+01  1.233266346046E+00      229
 O   2.158869009542E+01  1.181790087858E+00  2.064892773728E+01  0.000000000000E+00  5.216674275032E+01  2.944560970421E-01  2.452354199272E+01 -4.289701274934E+01  2.563964361050E+01  8.560581544117E-01      230
 O   2.170924657942E+01  3.814811582663E+00  2.127789947171E+01  0.000000000000E+00 -1.031249489576E+01 -6.167473653214E+00  9.209719204392E+00 -3.590125382615E+01  9.396419294167E+00 -1.856917844627E+00      236
 O   2.393693915469E+01  5.627926536404E+00  2.227986968283E+01  0.000000000000E+00 -1.556565569418E+01 -4.945548516483E+00  2.632325532938E+01 -1.957846744171E+01  2.828105236444E+01 -3.659714643200E+00      237
 H   1.429903047718E+01  1.710303220847E+01  3.988992173888E+00  0.000000000000E+00  9.768747595631E-01  7.680557145008E+00 -3.589089218997E-01  1.670693130274E+00 -2.161224904148E+00  1.168437293921E+00      243
 H   1.866023273540E+01  1.904346958331E+01  7.697582746144E+00  0.000000000000E+00 -2.298183672353E+01 -1.725598311900E+01 -4.334564668155E+00 -6.975060786245E+00 -1.050771237957E+01 -2.345382905020E+01      247
 H   1.590388696741E+01  8.703320308701E+00  9.682533669654E+00  0.000000000000E+00  1.102643229468E+01  6.192947144012E-01 -7.786718331599E-01  6.889717614591E-01 -1.278994655923E+00  6.034158336229E+00      248
 H   6.716384043179E+00  1.118233001130E+01  1.040880334254E+01  0.000000000000E+00  2.836234577441E-01 -1.638982146330E+01  2.093213741128E+01 -1.525607170048E+01  1.350667017833E+01  4.722140787439E-01      249