     8448
Lattice="     49.70      0.00      0.00      0.00     49.70      0.00      0.00      0.00     49.70" pbc="T T T" config_type=md Properties=species:S:1:pos:R:3:charge:R:1:forces:R:3:id:I:1
 Si  1.060408836425E+01  1.784271029488E+01  1.670386123589E+01  0.000000000000E+00  2.436427230802E+01 -2.656166277596E+01 -1.123270274895E+01 -2.486630796956E+01 -7.130840638409E+00  4.099594773307E+01        1
 Si  1.226690902613E+01  2.062350973614E+01  1.691154680684E+01  0.000000000000E+00  1.330480470749E+01 -6.098535601408E+01 -6.553942491652E+01 -5.000878686311E+01 -4.753948129396E+01  2.236845230024E+01        2
 Si  1.080427053671E+01  2.284865858467E+01  1.801102044142E+01  0.000000000000E+00 -1.487144773919E+01 -5.377295045838E+01 -1.001814458502E+01 -4.238785862689E+01 -6.009584227859E+00 -3.144984484590E+01        3
 O   1.124534519929E+01  1.936608182970E+01  1.704518701564E+01  0.000000000000E+00 -1.357432493774E+00 -5.790158827081E+00 -1.922233034972E+01 -5.096247187519E+00 -1.268168780542E+01 -2.337691576989E+00        4
 O   9.372080274985E+00  1.804327544588E+01  1.574742648243E+01  0.000000000000E+00 -1.473019555169E+01 -5.954082710813E+00 -1.950229787194E+01 -5.196477770352E+00 -1.160679184033E+01 -2.835880273243E+01        5
 O   1.138444374038E+01  1.670950006783E+01  1.574380779807E+01  0.000000000000E+00 -3.272054783535E+00  2.216431022664E+01  2.127662694111E+01  2.088336807018E+01  1.538525911284E+01 -4.802553455774E+00        6
 O   1.035466623168E+01  1.748256528501E+01  1.826229320026E+01  0.000000000000E+00  1.958166414652E+00  1.249736921865E+01 -6.842368749785E+00  1.305475582000E+01 -3.879602844020E+00  3.306120295634E+00        7
 O   1.276651993505E+01  2.126065832532E+01  1.544736495869E+01  0.000000000000E+00 -2.268288363935E+00 -7.505001956492E+00  2.887934203118E+00 -5.452912250583E+00  2.386741665897E+00 -3.777482362796E+00        8
 O   1.376571268107E+01  2.006683003320E+01  1.724452386627E+01  0.000000000000E+00  1.990271445287E+01 -3.234537590577E+01  2.951618865286E+01 -2.779614945897E+01  2.356176230705E+01  2.901298300918E+01        9
 O   1.191888068818E+01  2.157102481265E+01  1.804861849379E+01  0.000000000000E+00 -1.507315452449E+01  9.013428954835E+01  5.547672935929E+01  7.541595354860E+01  3.663551968986E+01 -2.727969167232E+01       11
 O   1.887952403053E+01  1.828766994750E+01  2.102791582216E+01  0.000000000000E+00  9.339366597101E+00  8.344372038724E+00 -1.180580633416E+00  9.594702513924E+00 -1.059962415061E+00  9.046586850937E+00       13
 Ca  3.467226528861E+00  1.602147963745E+01  1.605845031369E+01  0.000000000000E+00 -1.534508816491E+00 -1.121643386988E+00  9.511826309511E+00 -1.124231656952E+00  1.157622485612E+00  2.658429898515E+00       14
 Ca  2.063957851436E+01  1.447334201245E+01  1.868665786559E+01  0.000000000000E+00 -4.810173774775E+00 -5.875056277648E-01 -1.011949164692E+00 -7.585336303602E-01 -1.117706782423E+00 -3.373096506464E+00       15
 O   7.592982576322E+00  3.846162268091E+00  1.655204969993E+01  0.000000000000E+00 -1.033267049126E+01  3.223097031089E+00  5.131540995944E-01  1.197737990336E+01  2.354010655976E-01 -5.132763579229E+00       16
 O   9.475806460738E+00  1.629916117350E+01  2.057591146370E+01  0.000000000000E+00  6.612512956342E+00  3.502023945444E+01 -1.706946293049E+01  4.420922885430E+01 -7.860984792992E+00  1.137406244881E+01       18
 Si  2.049529480521E+01  1.975366842103E+01  1.804143989300E+01  0.000000000000E+00  4.412802372338E+00  3.209727276726E+00  7.835052255089E+01  2.931511276878E+00  8.900714506974E+01  4.253124226763E+00       19
 Si  1.841056873849E+01  2.212425171801E+01  1.871672098116E+01  0.000000000000E+00  3.081317373955E+01 -1.383724301340E+01  3.781602328075E+01 -1.170605993511E+01  3.719746085478E+01  3.702864489022E+01       20
 O   1.916692402332E+01  2.069021997465E+01  1.854639149633E+01  0.000000000000E+00  1.224407420592E+01 -1.649686496531E+01  5.669480756362E+00 -1.478753326372E+01  5.859172493494E+00  1.321717498322E+01       22
 O   2.176312572668E+01  2.074725729809E+01  1.800888057692E+01  0.000000000000E+00  6.447507594906E+00  1.275667986911E+01 -1.158128537597E+00  1.107295875403E+01 -1.399559337613E+00  6.146548096209E+00       23
 O   2.009160404497E+01  1.926393943704E+01  1.666808016658E+01  0.000000000000E+00 -1.910835321831E+01 -2.123231506943E+01 -6.245575304215E+01 -1.837121274473E+01 -7.528379080932E+01 -1.832119318672E+01       24
 O   2.088099261324E+01  1.843381008435E+01  1.906680472885E+01  0.000000000000E+00 -1.638961202986E+01  9.579957537354E+00  2.446990190459E+01  9.908921641244E+00  2.679818921852E+01 -1.446880429061E+01       25
 O   1.895699734764E+01  2.274937343075E+01  2.016559298024E+01  0.000000000000E+00  8.076222086134E+00 -7.923604619703E+00  5.712901952729E+01 -7.023674132549E+00  5.370507441629E+01  9.691882568630E+00       26
 O   2.120520223511E+01  1.679321550344E+01  2.139087384419E+01  0.000000000000E+00  1.723079753360E+01  1.167447642225E+01  2.468753461430E+01  1.487072278053E+01  2.447324817095E+01  1.364573150823E+01       27
 O   1.928080385406E+01  2.324810992970E+01  1.792011423844E+01  0.000000000000E+00 -1.767534047677E+01 -4.158854426563E+01  1.921305754702E+01 -3.205729267903E+01  2.067192145495E+01 -2.131229909080E+01       29
 Ca  5.344637728882E+00  1.010608443172E+01  1.483527080285E+01  0.000000000000E+00 -2.093016588977E+00 -7.097626704563E+00  9.837777460221E+00 -1.041899213598E+01  3.544212794023E+00 -3.957649412025E+00       32
 Si  1.391511208825E+01  1.960175439364E+01  1.280976648287E+01  0.000000000000E+00  4.525279180491E+01 -2.097020258261E+01 -2.674063002745E+01 -1.370404876968E+01 -2.904805990335E+01  6.374609884282E+01       37
 Si  1.241520492270E+01  2.166853427777E+01  1.380923065756E+01  0.000000000000E+00 -3.025184993399E+01 -1.945875029628E+01  4.258232473979E+01 -1.240094820004E+01  3.828368870354E+01 -5.279922895690E+01       38
 O   1.250742457879E+01  2.027866196554E+01  1.295517960877E+01  0.000000000000E+00 -3.708629305801E+01  8.862397286887E+00  9.282513396990E-01  5.661810863607E+00  8.961692521487E-01 -6.012911736872E+01       40
 O   1.425759817026E+01  1.849947027240E+01  1.401682486310E+01  0.000000000000E+00 -7.874821257686E+00  2.138324661535E+00 -7.658112347265E+00  1.620182731713E+00 -7.789659188613E+00 -1.021771128751E+01       41
 O   1.498088103724E+01  2.078228985643E+01  1.265357683457E+01  0.000000000000E+00  1.013973195802E+01  1.344912096833E+01  8.391404417855E+00  8.188678278756E+00  9.934790214879E+00  1.406638555464E+01       42
 O   1.389790037613E+01  1.902615718420E+01  1.112668235546E+01  0.000000000000E+00  2.155835061406E+00  2.099185133740E+00  1.221435477481E+01  1.227623947511E+00  1.525646912494E+01  2.951327584125E+00       43
 O   1.289231286916E+01  2.307457169469E+01  1.350513099871E+01  0.000000000000E+00  2.167573977778E+01  5.490031647860E+01 -1.995283685206E+01  3.213216590644E+01 -1.904744317910E+01  3.879508794224E+01       44
 O   1.070922737083E+01  2.181305216967E+01  1.404016973271E+01  0.000000000000E+00  9.335580555758E+00 -2.602425347917E+01 -1.759113887600E+01 -1.675074781707E+01 -1.341775131793E+01  1.901514447732E+01       46
 O   7.991902261791E+00  2.169832701384E+01  1.479533125596E+01  0.000000000000E+00  5.423313986870E+00 -3.036079667937E+01  4.651789333322E+00 -2.070196673594E+01  2.512728174259E+00  1.472450945108E+01       47
 O   1.660191808296E+01  1.600488536095E+01  1.106935277009E+01  0.000000000000E+00 -4.587223190005E+01  4.781706311540E+00  6.624989306717E+00  3.307139839599E+00  9.936220486871E+00 -4.422258977201E+01       48
 Ca  6.586835030200E+00  2.093852230174E+01  1.322562552955E+01  0.000000000000E+00  1.835939534202E+00 -2.964588389602E+00  3.792195511912E+00 -1.872555060242E+00  1.888649136740E+00  5.836165731385E+00       49
 Si  2.064251697687E+01  2.018622313610E+01  2.316603477078E+01  0.000000000000E+00 -7.724402030719E+01  2.936725566408E+01  6.368988564332E+01  3.370233556070E+01  5.675203195782E+01 -7.553657490498E+01       51
 Si  1.953714713108E+01  2.257717819083E+01  2.183788568423E+01  0.000000000000E+00  2.193765016287E+00  3.109587036110E+01 -4.640754935123E+01  3.007763222035E+01 -4.151826476143E+01  2.535120575652E+00       52
 O   1.945641490801E+01  2.107645344732E+01  2.232692139183E+01  0.000000000000E+00 -3.381121034236E+00 -4.450325695397E+01  1.649883435598E+01 -4.714363933073E+01  1.437762784644E+01 -3.662650103567E+00       54
 O   1.991623943577E+01  1.869020936474E+01  2.364380286482E+01  0.000000000000E+00 -3.174857222220E+00  3.644709892934E+00 -6.394006964654E+00  4.610692182537E+00 -5.385959880908E+00 -2.979415184168E+00       55
 O   2.175924397510E+01  1.972809768915E+01  2.223910958267E+01  0.000000000000E+00  4.750653419284E+01 -1.892071709947E+01 -2.698832686883E+01 -2.132896478859E+01 -2.640598476461E+01  4.307197200885E+01       56
 O   2.095447226217E+01  2.090395880228E+01  2.462067373173E+01  0.000000000000E+00  6.037849863344E+00 -6.358190257009E+00 -3.811698157432E+01 -7.488673763794E+00 -3.244107946923E+01  6.023294846967E+00       57
 O   1.692306196984E+01  2.196792395697E+01  1.841069625296E+01  0.000000000000E+00 -3.522922241682E+01  5.906034386142E+00 -1.178744040896E+01  4.949680513997E+00 -1.083498319487E+01 -4.573125599229E+01       58
 O   1.575884790545E+01  1.267900177537E+01  1.185798435557E+01  0.000000000000E+00 -6.865956251287E+01  2.000929755535E+01  1.761276104684E+01  1.871361338857E+01  2.340674554878E+01 -5.524101255497E+01       59
 H   3.977878797709E+00  5.325912781283E+00  1.635890156853E+01  0.000000000000E+00 -2.934089151352E+00 -6.271252451625E-01  8.794993158450E+00 -1.926257634712E+00  2.125424036192E+00 -4.021345728520E+00       70
 H   1.396192256876E+01  1.944323429413E+01  1.801432140614E+01  0.000000000000E+00 -4.407464309186E+00  1.317458540785E+01 -1.781624265722E+01  1.220636506969E+01 -1.380840248367E+01 -6.137790894091E+00       73
 H   1.426715243694E+01  9.460975118624E+00  1.567620007358E+01  0.000000000000E+00 -1.172283070514E+01  2.791342522352E+00 -9.961023758139E+00  4.625067004789E+00 -9.065681971288E+00 -7.773759347657E+00       83
 Si  2.313495739428E+00  2.142939570492E+01  2.041656552686E+01  0.000000000000E+00 -1.106027903034E+00 -5.597854590869E+01  5.056993425847E+00 -5.333279885166E+01  1.513067482556E-01 -3.372562126695E+01       89
 Si  2.589541471678E+00  2.135508274773E+01  1.719541902581E+01  0.000000000000E+00 -7.963313703475E+00 -4.853118815913E+00  1.798398563171E+01 -3.907800901897E+00  2.095732603048E+00 -3.240745568399E+01       90
 O   2.187834536482E+00  2.131463138124E+01  1.877525250421E+01  0.000000000000E+00 -4.722077577930E-01  4.199048597853E+00  2.973439568877E+00  3.698783070279E+00  2.998697500577E-01 -3.419608970408E+01       92
 O   2.124548403503E+00  1.970556610551E+01  2.085078817105E+01  0.000000000000E+00  1.044934634770E+01  5.832923738125E+01 -1.177294953095E+01  6.171913896324E+01  2.577321061503E-01  2.714449654504E+01       95
 O   1.673842886860E+00  2.007835935581E+01  1.663611704703E+01  0.000000000000E+00  1.506687999057E+01  3.670495221768E+00 -2.155672116772E+01  3.041223988864E+00 -7.333628612162E-01  1.392866817534E-01       96
 O   4.114120908830E+00  2.097212716895E+01  1.727684899420E+01  0.000000000000E+00  5.910107580570E+00  6.760045368328E+00 -1.519302674342E+01  5.568928801628E+00 -3.615373799253E+00  3.015344009994E+01       97
 O   1.154000512552E+01  1.388179484410E+01  2.103716826055E+01  0.000000000000E+00 -8.748604826420E+00  1.640747947813E+01 -1.346957795577E+01  2.486471745111E+01 -7.388779550705E+00 -1.052394137191E+01       98
 O   3.717365141493E+00  1.229774181940E+01  1.983288840702E+01  0.000000000000E+00  3.118297060489E+00  5.306906221963E+00  7.940183460536E+00  8.558585830832E+00  1.612012580583E+00  7.929815449549E+00      101
 Ca  2.142058778433E+01  2.283395524091E+01  1.938777657585E+01  0.000000000000E+00 -3.194636585192E+00  1.018510352201E+01 -1.551131996103E+01  8.647932844014E+00 -1.713768412670E+01 -3.405424236334E+00      102
 O   1.710721640726E+01  4.160932104864E+00  1.117164065134E+01  0.000000000000E+00 -1.611863453566E+01  7.175107534403E+00  4.181715595596E+00  1.926436697088E+01  6.403492188851E+00 -3.920482580530E+00      105
 Si  5.509115472405E+00  1.600981208348E+01  1.904462421696E+01  0.000000000000E+00  1.946369375743E+00  4.722750738686E+00 -2.463905613829E+01  5.617993054488E+00 -7.127439420727E+00  5.656263352398E+00      107
 Si  8.032201615335E+00  1.693382156782E+01  2.068476035414E+01  0.000000000000E+00 -8.394300494680E+00  2.246259215603E+01  2.748442437221E+01  2.743818539834E+01  1.067261278639E+01 -1.769721348779E+01      108
 Si  7.262885148815E+00  1.963942994193E+01  1.956575824456E+01  0.000000000000E+00 -1.041315489811E+01  2.450442530528E+01  1.868434716960E+01  2.441250397098E+01  6.935701948127E+00 -2.815801460515E+01      109
 O   6.843784631522E+00  1.658004264865E+01  1.973321654350E+01  0.000000000000E+00  7.308976509522E+00  5.065083463068E+00 -2.404140790365E+01  6.028355348999E+00 -8.337932012676E+00  1.770703620446E+01      110
 O   5.735815352824E+00  1.638916157986E+01  1.733388111402E+01  0.000000000000E+00 -5.831732185041E+00 -1.882343994687E+01  3.728167412704E+01 -1.990847845426E+01  1.233657929405E+01 -1.666322836283E+01      111
 O   4.338753581659E+00  1.693738419853E+01  1.965224753040E+01  0.000000000000E+00 -3.778665382036E+00  8.396924354108E-01 -5.018104941832E+00  9.742852495207E-01 -1.115527180068E+00 -1.427806162335E+01      112
 O   5.625886404369E+00  1.455117792668E+01  1.980150662818E+01  0.000000000000E+00 -1.074874181088E+01 -2.534982216643E+01 -5.282441535245E+00 -3.449649740942E+01 -1.500815901186E+00 -2.780128202669E+01      113
 O   7.479693950113E+00  1.641561526529E+01  2.211527205133E+01  0.000000000000E+00  2.863584268382E+00  1.560904037711E+01  6.299425074092E+01  2.102864673797E+01  2.130553560748E+01  6.284681959317E+00      114
 O   1.322339975932E+01  1.313881113598E+01  3.621348601322E+01  0.000000000000E+00 -2.262017013859E+01  3.609991658139E+00 -2.156091726826E+01  9.949939995856E+00 -7.872995936148E+00 -2.247547141612E+01      115
 O   8.113969128796E+00  1.861063581317E+01  2.046458540659E+01  0.000000000000E+00  5.171580112841E+00 -1.296164566563E+01  7.889974982175E+00 -1.425285559275E+01  3.128282941501E+00  1.186181417885E+01      117
 O   5.591878565128E+00  1.950517771842E+01  1.977087490831E+01  0.000000000000E+00  8.059512774808E+00  1.530515212338E+01 -2.824781740172E+00  1.551363706869E+01 -7.989447375135E-01  2.811259707549E+01      118
 O   6.907009676307E+00  1.014757286207E+01  2.153650962093E+01  0.000000000000E+00  4.269307814436E+00 -1.703131895005E+01 -4.040399752355E+00 -3.614609812717E+01 -1.295803297603E+00  6.272339861661E+00      119
 Ca  2.331476537551E+01  1.952663097296E+01  2.087833754023E+01  0.000000000000E+00  1.549125971965E+01  6.166122125859E+00 -1.518763362916E+01  6.592964205461E+00 -1.695997653025E+01  1.297427218245E+01      120
 Ca  2.844629562382E+00  1.233307012008E+01  1.765329562031E+01  0.000000000000E+00 -5.281491401254E-01  5.427046837731E+00  2.543218872370E+01  7.768160015221E+00  5.155598112349E+00  8.878673305214E+00      121
 Si  1.341296888522E+00  1.698284598570E+01  1.360597602131E+01  0.000000000000E+00 -1.321619256447E+02  4.111065894100E+01  1.494446827223E+01  3.293621341456E+01 -4.087667635067E+01  7.866374847838E+01      125
 Si  2.313041098040E+00  1.920717270035E+01  1.528241170225E+01  0.000000000000E+00 -6.548237153789E+00 -1.520080906336E+01  4.119394121899E+01 -1.209470159600E+01  4.729289686861E+00 -1.530592525071E+01      126
 Si  3.221745340614E+00  2.116503883326E+01  1.284792923748E+01  0.000000000000E+00 -2.632161849241E+00 -3.363505269025E+01 -4.294272086217E+00 -2.041766992575E+01 -1.370440659120E+00 -1.246694741127E+01      127
 O   1.075470897204E+00  1.830959139585E+01  1.468196367378E+01  0.000000000000E+00  5.151111864757E+01 -1.231614981304E+01 -1.069163899760E+00 -9.875985774144E+00  1.633580937987E+01  3.336960556414E+00      128
 O   2.519256149080E+00  1.718943975297E+01  1.247832651619E+01  0.000000000000E+00  1.143878129518E+01 -4.176157656416E+00  7.831967158947E+00 -3.031597281165E+00  2.586813705365E+00 -1.712887124623E+01      129
 O   1.591449881865E+00  1.582419523688E+01  1.468160187122E+01  0.000000000000E+00  3.421536806791E+01 -3.519199119347E+01  1.933303566299E+01 -3.265093712656E+01  2.533834091807E+01  1.877903538232E+01      131
 O   3.472579601008E+00  1.837262325264E+01  1.604882894783E+01  0.000000000000E+00 -7.547450143240E-01 -5.868623928989E+00 -2.257243002020E+01 -5.126352415785E+00 -4.971459589832E+00 -1.659778089769E+00      132
 O   2.593741941735E+00  4.871568610993E+00  9.927864395955E+00  0.000000000000E+00  2.742793297370E+00  3.573745925562E+00 -1.751838672238E+00  7.308108907863E+00 -5.574649548128E-01  7.237451443697E-01      133
 O   2.620262633073E+00  2.010336924543E+01  1.404715863301E+01  0.000000000000E+00  6.249570231927E+00  5.346501989064E+01 -2.588599823948E+01  3.735849481508E+01 -4.749839183841E+00  3.098622576774E+01      134
 O   1.804862927476E+00  2.152380703591E+01  1.199239787636E+01  0.000000000000E+00  1.238139565870E+01 -4.281572630832E+01 -1.196954296583E+01 -2.385559508120E+01  8.764560713702E-01  4.095988718505E+01      135
 O   8.202633370929E+00  1.480998641940E+01  1.315121763041E+01  0.000000000000E+00 -8.669520840640E+00  1.169070816898E+00 -1.624251745462E+01  1.038130914033E+00 -1.013072853369E+01 -1.565295925180E+01      136
 Si  8.618114274680E+00  1.403065524742E+01  2.534491089376E+01  0.000000000000E+00 -1.580866557134E+00 -8.881555531688E+00 -2.626885749142E+01 -1.604360092804E+01 -8.932286906645E+00 -2.573717747105E+00      139
 Si  8.006104424885E+00  1.665830641252E+01  2.378835372456E+01  0.000000000000E+00 -4.527292262469E+01 -4.680888687005E+01 -6.970431885243E+01 -6.684391142430E+01 -2.345938109294E+01 -9.419939801537E+01      140
 O   7.837492724514E+00  1.507456505928E+01  2.439841555014E+01  0.000000000000E+00 -2.733604906582E+00  9.152851306487E+00 -1.625013026561E+01  1.481403070444E+01 -5.220022483320E+00 -5.257791803972E+00      142
 O   8.039872954403E+00  1.246583085890E+01  2.556924181092E+01  0.000000000000E+00 -8.547134149507E+00 -4.420486312882E+00 -2.009530750546E+01 -9.067063779004E+00 -6.318674621576E+00 -1.325233983676E+01      143
 O   6.938053081515E+00  1.770927260683E+01  2.451671115592E+01  0.000000000000E+00  5.345267064212E+00 -6.107708779477E+00 -6.066364845978E+00 -8.455510019825E+00 -1.716737658880E+00  1.364371106480E+01      148
 O   1.265845197030E+01  1.610453052531E+01  1.102647523123E+00  0.000000000000E+00 -3.176669565803E+00 -3.068959987185E+01  3.203037354260E+01 -1.681970955655E+01  2.088530690488E+01 -4.041471430418E+00      150
 Ca  4.723405515116E+00  1.164129682578E+01  7.066871063249E+00  0.000000000000E+00 -6.466091529388E-01  2.520797176184E+00  3.364095842559E+00  1.530254651804E+00  2.256821301169E+00 -1.528107203458E+00      151
 Ca  1.203578292320E+01  2.193282904552E+01  1.822122325886E+00  0.000000000000E+00 -1.902917004164E+00 -1.145892804825E+01 -4.189609007122E+01 -1.962412148065E+00 -1.327307963938E+00 -3.467689107260E+00      152
 H   6.360231563227E+00  1.881257819859E+01  1.424354291737E+01  0.000000000000E+00  1.940263987845E+00  3.072269424314E+01  3.603137831473E+01  2.326103362176E+01  1.608924906910E+01  5.738999851557E+00      155
 H   1.359374367192E+01  1.402705063922E+01  3.609707117863E+01  0.000000000000E+00 -4.918173720770E+00 -6.448036029234E+00 -5.239117872882E-01 -1.659331113119E+01 -1.972991799764E-01 -5.074942819193E+00      156
 H   1.653316028111E+01  1.232078428331E+01  1.156838171914E+01  0.000000000000E+00  5.833977225279E+01 -2.197342791537E+01 -1.724784549215E+01 -2.063156013106E+01 -2.465006782702E+01  4.347576245814E+01      159
 H   1.747493358322E+01  3.291903436656E+00  1.106898330289E+01  0.000000000000E+00  6.776731593444E+00 -4.748712227678E+00 -1.576135193090E+00 -1.721557860916E+01 -2.488291567865E+00  1.060356019755E+00      160
 H   1.524070665015E+01  1.720379013191E+01  1.478051157738E+01  0.000000000000E+00  6.263113061480E+00 -6.971687485706E+00  6.529245910959E+00 -5.989674763892E+00  6.732535680826E+00  7.069835090689E+00      164
 H   1.920720541825E+01  6.402957619775E+00  6.339669586998E+00  0.000000000000E+00  2.045742418294E+01  4.644464834763E+00 -8.198645213870E+00  4.598558074146E+00 -2.483931703587E+01  6.819733386550E+00      168
 H   5.228079856627E+00  2.005487421924E+01  3.276687824855E+01  0.000000000000E+00  4.789806811452E+00  2.491034097064E+01  4.272360086358E+00  4.070003634986E+01  6.816712760465E-01  1.837366218046E+01      169
 Si  1.158560952860E+01  3.375438090351E-01  1.937484109507E+01  0.000000000000E+00 -1.612264347592E+01 -1.557655883617E+02 -3.022690584124E+01  3.419366329577E+01 -1.807483873628E+01 -6.631631121386E+01      177
 Si  1.070013408183E+01  3.211926720521E+00  1.879776874187E+01  0.000000000000E+00 -1.555832788302E+01 -4.205731026239E+00 -8.048929035313E+01 -2.232386674878E+01 -4.581640569989E+01 -4.693874299820E+00      178
 Si  7.971770845576E+00  3.670450537179E+00  1.996803392866E+01  0.000000000000E+00  1.049736563060E+01  2.903413479221E+00  5.423000156867E+01  1.579518870361E+01  2.165006064218E+01  4.833312706068E+00      179
 O   1.059035312458E+01  1.549338258881E+00  1.880551913642E+01  0.000000000000E+00  4.743606375066E+00  6.372247196136E+00  1.361942232425E+01 -1.484456028562E+01  7.669795804107E+00  1.264719901928E+00      180
 O   1.211658312260E+01  4.616178728804E-01  2.083793143943E+01  0.000000000000E+00  6.128880112947E+00  1.960620078435E+01  7.491444204967E+01  1.169031561656E+01  4.356032492075E+01  2.759957071670E+00      182
 O   1.109629604817E+01  3.579531998784E+00  1.707174678301E+01  0.000000000000E+00  1.822988230907E+00  5.747562237450E+00  3.074813281158E+01  2.815261687063E+01  1.998567510065E+01  6.020327047055E-01      184
 O   1.166873330571E+01  4.047898224795E+00  1.969288430125E+01  0.000000000000E+00 -1.825380360964E+00 -7.479711231645E-01  2.329368365566E+01 -3.638853541061E+00  1.380233479909E+01 -6.332267375673E-01      185
 O   9.004233178921E+00  3.151537201640E+00  1.876496015488E+01  0.000000000000E+00 -8.499817862223E+00  6.691137994591E+00  1.633271331143E+01  3.871390196954E+01  7.837136763774E+00 -2.985515792824E+00      187
 O   6.522642844893E+00  4.318108648067E+00  1.977311298850E+01  0.000000000000E+00  7.005912988692E+00 -3.320312886833E+00 -1.365161312139E+01 -1.518084655299E+01 -4.503317039622E+00  4.636179997788E+00      188
 Ca  1.300163380857E+01  2.619537817030E+00  2.101438590862E+01  0.000000000000E+00  1.014248484600E+00 -3.046671876085E+00  1.323921394532E+01 -3.320169634016E+00  8.191122613760E+00  7.567009989631E-01      190
 O   1.379567674572E+01  1.790135121974E+01  8.588198433256E+00  0.000000000000E+00 -5.796941589780E+00  8.337208245815E+01 -5.341233707754E+00  3.999787385630E+01 -8.579905812396E+00 -7.522145474392E+00      193
 O   5.542214670920E+00  1.104227730829E+01  1.301772274057E+01  0.000000000000E+00  7.886316992016E+00 -4.418058510298E+00 -1.204998541627E+01 -5.208441984654E+00 -5.130206510720E+00  1.571265357580E+01      194
 Si  1.852793798541E+01  1.671899456449E+00  1.996052046869E+01  0.000000000000E+00  3.512464242838E+00  1.785337882655E+00 -4.950321128303E-02  4.347085012473E+00 -4.595032630384E-02 -2.225424430855E+00      196
 Si  1.606288083087E+01  3.888103710624E+00  1.969691333368E+01  0.000000000000E+00  2.171708953163E+01 -2.814402526420E+00 -2.700126409970E+01 -1.425760390535E+01 -2.201959668344E+01  5.256734285772E+00      197
 O   2.002015100654E+01  2.235595957507E+00  2.030417025509E+01  0.000000000000E+00 -2.563351123011E+01  3.214201979699E-01  3.643535003556E+00  1.261441538465E+00  3.592568425715E+00 -2.652995607975E+00      202
 O   1.739152202336E+01  2.775288419398E+00  1.961787032748E+01  0.000000000000E+00 -1.919048615566E+01  1.343494395468E+00 -2.090966786419E+00  6.177092567234E+00 -1.853671897565E+00 -3.270313035110E+00      205
 O   1.614336557146E+01  4.608358757760E+00  2.106530969145E+01  0.000000000000E+00 -5.949392538048E+00  3.296050662803E+00  2.602633782138E+01  1.506660649059E+01  1.994524135135E+01 -1.698340726084E+00      206
 Ca  1.324551573819E+01  5.106062339138E+00  1.885106982055E+01  0.000000000000E+00  8.402556623603E+00  7.939605889873E+00 -1.621693162183E+01  2.931222829585E+01 -1.139466486872E+01  3.239132305325E+00      209
 O   2.233077687079E+01  1.906850308338E+01  1.491935993709E+01  0.000000000000E+00 -1.360951994363E+01 -1.690039745424E+01 -2.457479879627E+01 -1.322301554543E+01 -3.678270052321E+01 -1.162132309637E+01      210
 O   1.373766891414E+01  1.767267337004E+01  3.905912162990E+00  0.000000000000E+00  1.012350845606E+01 -1.678086853910E+01 -2.955275995065E+00 -3.247680198082E+00 -1.220274955786E+01  1.302327632301E+01      212
 Si  1.396323984130E+01  3.836426639052E+00  1.465192826682E+01  0.000000000000E+00  3.247249084365E+01 -7.446044406720E+00  1.369945000100E+01 -2.919414833638E+01  1.305553116111E+01  8.693162227808E+00      213
 Si  1.150783440726E+01  4.848909245168E+00  1.591100342425E+01  0.000000000000E+00  2.342793645866E-01 -1.837545487042E+01  3.126864640157E+01 -6.029643175044E+01  2.261544387452E+01  9.871530443466E-02      214
 Si  1.042671799750E+01  6.138870318232E+00  1.366305917129E+01  0.000000000000E+00  7.060164461734E+00 -7.265442618634E+00 -5.175476075013E+00 -1.617042994200E+01 -3.949571531563E+00  4.156766689802E+00      215
 O   1.237755096180E+01  3.811311704547E+00  1.497346039005E+01  0.000000000000E+00 -4.692923280405E+00  2.277258232035E+00 -1.159550378013E+00  1.018462677289E+01 -9.585221800948E-01 -1.500454691025E+00      216
 O   1.484036404005E+01  4.126700643299E+00  1.620412375534E+01  0.000000000000E+00 -2.836389082084E+01 -6.347143281026E+00 -2.685481755512E+01 -2.492273204855E+01 -2.459468187014E+01 -7.887222113459E+00      217
 O   1.465530164114E+01  4.825157260986E+00  1.364024534161E+01  0.000000000000E+00 -8.112080720297E-01  1.421574618268E+00 -1.757759115841E+01  4.235565303428E+00 -1.888565008176E+01 -2.625507076038E-01      218
 O   1.418196333497E+01  2.189639280815E+00  1.420782893172E+01  0.000000000000E+00  1.069646928673E+01 -1.371456607372E+00  1.904008639547E+01  1.764930651591E+01  1.900542359095E+01  3.750624856700E+00      219
 O   1.241974990454E+01  6.087547335634E+00  1.639016269991E+01  0.000000000000E+00  5.234653611621E+00  4.281395258657E+00  1.640095386676E+01  1.152726393785E+01  1.242792697977E+01  2.565768384333E+00      220
 O   1.015330754191E+01  5.362424559566E+00  1.530016696860E+01  0.000000000000E+00 -9.166709485334E+00  5.970430079903E+00 -2.564270592076E+01  1.703493934174E+01 -1.701669530500E+01 -4.841357151023E+00      222
 O   1.197956375181E+01  6.001516678378E+00  1.320372650227E+01  0.000000000000E+00 -1.686636025753E+01  1.763750676555E+00 -2.078393417668E+00  3.880366047356E+00 -1.885698438546E+00 -8.449701882825E+00      223
 O   2.127587688531E+01  2.150365484274E+01  1.235312320359E+01  0.000000000000E+00 -6.578655113387E+00  1.765886243321E+01  6.592186278379E-01  1.014441986109E+01  1.135377194514E+00 -6.649085706326E+00      224
 Ca  1.549326586115E+01  7.940067222457E+00  6.444125674898E+00  0.000000000000E+00  2.443433968644E+00 -5.504367837870E+00 -1.331012085931E+00 -4.467322141528E+00 -3.200080996567E+00  1.252223394250E+00      225
 Ca  1.677337063074E+01  4.912909671025E+00  1.608004525116E+01  0.000000000000E+00  1.014582702437E+01  1.956787138757E+00 -2.732848632706E+00  6.404600907622E+00 -2.850681218748E+00  2.971706331774E+00      226
 Si  2.155850830802E+01  2.623361446075E+00  2.011434920630E+01  0.000000000000E+00 -1.543003471606E+01 -1.220247063729E+01  1.163088327104E+02 -6.852928482721E+01  1.246595110071E+02  1.100642884767E+00      228
 Si  2.286683893323E+01  4.983056800015E+00  2.118289767810E+01  0.000000000000E+00  5.851316751175E+01  3.385508377841E+00 -2.836881374382E+01  1.439174395041E+01 -3.062400170479E+01  1.275097262509E+01      229
 O   2.223619970764E+01  1.159449923594E+00  2.066321281900E+01  0.000000000000E+00  9.702037716927E+00  2.056856587206E+01 -1.693105456728E+01  2.654279889686E+01 -1.821993094283E+01 -1.378236935543E+01      230
 O   2.201494466204E+01  3.597532516477E+00  2.152056881397E+01  0.000000000000E+00 -2.707571375354E+00 -1.605835641967E+00 -2.915531723857E+01 -7.286874288871E+00 -2.982508042234E+01 -3.678382982319E-01      236
 O   2.343601822091E+01  4.873993855741E+00  2.290955296748E+01  0.000000000000E+00 -1.699107954497E+00  7.990822320815E-01 -2.433494489354E+01  3.755978621039E+00 -2.489416588527E+01 -3.533638544057E-01      237
 H   1.390526559030E+01  1.697016788958E+01  3.192299909210E+00  0.000000000000E+00 -4.079635904658E+00  1.722107383111E+01  3.667564799397E+00  3.694725682752E+00  1.400352868292E+01 -4.978840985152E+00      243
 H   1.826496335900E+01  1.913160283100E+01  7.451189165427E+00  0.000000000000E+00  9.518757220052E+00 -2.022692174094E+01  7.629168011629E+00 -7.877783239456E+00  1.870123964087E+01  9.970405031720E+00      247
 H   1.627964389223E+01  8.652356700430E+00  9.236673883751E+00  0.000000000000E+00 -1.547518735481E+01  1.205147974029E+01  1.206742555403E+01  1.286534894847E+01  2.126884560267E+01 -8.224801591862E+00      248
 H   6.740512038964E+00  1.138135764959E+01  9.184012491265E+00  0.000000000000E+00 -4.151488060466E+00  2.210079377492E+01 -4.322457279773E-02  1.783389753182E+01 -3.172423312787E-02 -7.009789482023E+00      249