     8448
Lattice="     49.70      0.00      0.00      0.00     49.70      0.00      0.00      0.00     49.70" pbc="T T T" config_type=md Properties=species:S:1:pos:R:3:charge:R:1:forces:R:3:id:I:1
 Si  1.070016148067E+01  1.752732130393E+01  1.675449383714E+01  0.000000000000E+00 -1.180398911693E+01 -7.332105837036E+00  2.592400230392E+00 -7.008813265284E+00  1.655621551886E+00 -1.933543809543E+01        1
 Si  1.285148750110E+01  1.969943589486E+01  1.725508613765E+01  0.000000000000E+00  1.697470208055E+01 -2.305990010697E+01 -2.585221901286E+01 -2.019857648692E+01 -1.925458191684E+01  2.601971603999E+01        2
 Si  1.131358449776E+01  2.229662598820E+01  1.798034411789E+01  0.000000000000E+00  1.013668764015E+01 -2.363974418197E+00  2.727741313915E+01 -1.906345540693E+00  1.716348232307E+01  1.997721704525E+01        3
 O   1.193745141792E+01  1.829020538377E+01  1.760121027093E+01  0.000000000000E+00  5.149008970445E+00  2.559488162554E+01 -1.508516659959E+00  2.463071813018E+01 -1.023102619888E+00  7.889157266088E+00        4
 O   9.976832155220E+00  1.860416639274E+01  1.576775265710E+01  0.000000000000E+00 -1.137058783193E+00  1.463749913677E+00 -5.645468852812E+00  1.240584829413E+00 -3.572094033114E+00 -2.120315393878E+00        5
 O   1.147776073118E+01  1.628627035668E+01  1.595503746077E+01  0.000000000000E+00  5.388853191804E+00  5.735694878363E+00 -1.917685412637E+01  5.619041354691E+00 -1.379547643059E+01  7.646467115814E+00        6
 O   9.338811717187E+00  1.678279635178E+01  1.753762028019E+01  0.000000000000E+00  7.728620248275E+00  1.357095540089E+01  1.081076203827E+01  1.418132340234E+01  5.756748611368E+00  1.388911819138E+01        7
 O   1.294490597669E+01  1.988683559133E+01  1.554394942789E+01  0.000000000000E+00 -6.218567276806E-01  5.523066301486E+00  2.717940516524E+01  4.316939358346E+00  2.263484232233E+01 -9.553381482270E-01        8
 O   1.461080370079E+01  1.957154473735E+01  1.749587408502E+01  0.000000000000E+00 -3.078581152912E+01 -3.986234994054E-01  1.662863551438E-01 -3.563472708220E-01  1.388657280751E-01 -4.123838085549E+01        9
 O   1.244088894725E+01  2.105610030623E+01  1.798850973717E+01  0.000000000000E+00 -7.112637333547E+00 -7.527508254582E+00  6.919296502458E+00 -6.430851561534E+00  4.785399159681E+00 -1.203807909323E+01       11
 O   1.874869350467E+01  1.689867919874E+01  2.081558878805E+01  0.000000000000E+00  2.829782540350E+01 -1.742551998982E+00  3.078254553156E+01 -2.146454490675E+00  2.772597582233E+01  2.550555714170E+01       13
 Ca  3.977434265251E+00  1.595129047953E+01  1.740839517094E+01  0.000000000000E+00  1.201628420655E+00  6.835889009425E+00 -3.025754811407E+00  7.460327888419E+00 -6.913182258885E-01  4.819067446016E+00       14
 Ca  2.242019064374E+01  1.364751124407E+01  1.763763052844E+01  0.000000000000E+00 -1.467321581157E+00 -1.526309593386E+01  1.288516839503E+01 -1.972556329042E+01  1.637906698563E+01 -8.931809767239E-01       15
 O   7.106285243182E+00  4.265449585266E+00  1.648839985675E+01  0.000000000000E+00  7.755675379356E-01  4.683688096366E+00  3.385147069379E+01  1.810513067695E+01  1.458954226858E+01  4.655237046962E-01       16
 O   1.050498220957E+01  1.678869258920E+01  2.090511826903E+01  0.000000000000E+00 -1.957098384604E+01 -2.403646309559E+01  1.814471499409E+01 -2.992997227823E+01  9.117858399927E+00 -3.127765710634E+01       18
 Si  2.046784386257E+01  1.938991027125E+01  1.773262053786E+01  0.000000000000E+00 -4.018581273283E+01  3.026578826640E+00 -7.392815935678E+00  2.767891811252E+00 -8.533143871948E+00 -3.806943751862E+01       19
 Si  1.807611516777E+01  2.127470077734E+01  1.812694617153E+01  0.000000000000E+00 -4.880733522532E+00  1.858550135381E+01 -4.834195302457E+01  1.583563435921E+01 -4.820639406318E+01 -5.744383917787E+00       20
 O   1.861322615341E+01  1.985317296645E+01  1.746309643823E+01  0.000000000000E+00  3.175077949150E+01 -1.943658002061E+01  2.074905158678E+01 -1.709665613164E+01  2.211559622427E+01  3.386590330280E+01       22
 O   2.145612049127E+01  2.063270765615E+01  1.784968571918E+01  0.000000000000E+00 -1.733595399695E+00 -7.860801149168E+00 -3.700096567007E+00 -6.800504924121E+00 -4.447681545774E+00 -1.667065912055E+00       23
 O   2.102963931685E+01  1.824109604445E+01  1.675241891170E+01  0.000000000000E+00 -4.230903665006E+00  8.965379518876E+00 -1.259314707440E+01  8.233704435117E+00 -1.580842397951E+01 -3.669883203673E+00       24
 O   2.015226896234E+01  1.864756394962E+01  1.914688972788E+01  0.000000000000E+00 -2.673028913920E+00  1.091988437711E+01  3.060653934560E+01  1.121228609670E+01  3.221365045002E+01 -2.473442454776E+00       25
 O   1.875623967844E+01  2.170602479304E+01  1.959750066488E+01  0.000000000000E+00 -4.073463508766E+00  2.827849500401E+01 -1.100533570655E+01  2.553152085316E+01 -1.053291017990E+01 -4.714095225413E+00       26
 O   2.150579154863E+01  1.728829961890E+01  2.085178778403E+01  0.000000000000E+00 -2.338428075888E+01 -9.438346388609E+00 -1.196643601457E+01 -1.138379136560E+01 -1.234175607266E+01 -1.879839908323E+01       27
 O   1.891258781406E+01  2.208541680500E+01  1.683424337786E+01  0.000000000000E+00  5.337595451811E-01  6.077334923549E+01  4.771933467700E+00  4.632347946842E+01  5.361073184282E+00  6.233045495873E-01       29
 Ca  4.513472526907E+00  9.796502244135E+00  1.337636400829E+01  0.000000000000E+00  8.199348900391E-01  1.846760249886E+00  1.460611257633E+01  2.521607888499E+00  4.928416107498E+00  1.779670518083E+00       32
 Si  1.243646121074E+01  1.836010009405E+01  1.197338369177E+01  0.000000000000E+00  4.360942978416E+01  3.086504408952E+01 -2.126871198522E+01  2.012837695079E+01 -2.209129168628E+01  6.438113562320E+01       37
 Si  1.241281096821E+01  2.051300583917E+01  1.412689204931E+01  0.000000000000E+00  3.204864505752E+01 -4.144489836581E+01  1.316952054693E+01 -2.854226288428E+01  1.157160177345E+01  5.296254368861E+01       38
 O   1.209513823104E+01  1.912329415418E+01  1.333209692278E+01  0.000000000000E+00 -5.144216593291E+00  1.546705219015E+01  1.598148272060E+01  1.078309193208E+01  1.449871267530E+01 -8.133380969047E+00       40
 O   1.363266449158E+01  1.735820036586E+01  1.220977101577E+01  0.000000000000E+00  9.299647304538E+00 -1.072267941554E+01  2.139972617196E+00 -7.542340656279E+00  2.389359200408E+00  1.184105582175E+01       41
 O   1.305767344837E+01  1.954199778683E+01  1.086399940473E+01  0.000000000000E+00  1.926264170082E+00  4.742304351649E+00 -3.695978648803E+00  2.636393280531E+00 -4.442275857199E+00  2.882829800991E+00       42
 O   1.112404313610E+01  1.785597378594E+01  1.137382371682E+01  0.000000000000E+00 -4.398701791348E+01 -1.418199882533E+01 -1.063997781523E+01 -9.033590468107E+00 -1.040631322681E+01 -7.060661570395E+01       43
 O   1.365272954555E+01  2.148277115442E+01  1.371495209027E+01  0.000000000000E+00 -8.745722211236E+00 -2.034418473685E+00 -1.238115982261E+00 -1.298805991908E+00 -1.232498848015E+00 -1.376152279421E+01       44
 O   1.097891947456E+01  2.117128066934E+01  1.412963407192E+01  0.000000000000E+00 -1.306972231476E+01 -6.686562932663E+00 -1.687680424371E+01 -4.462587262103E+00 -1.311350837796E+01 -2.520309580894E+01       46
 O   8.546620824732E+00  2.219679368955E+01  1.528070167252E+01  0.000000000000E+00 -8.058649848687E+00 -4.179471932522E+01 -2.361835460284E+01 -2.877229236022E+01 -1.320993797409E+01 -2.092946344244E+01       47
 O   1.698956981609E+01  1.545256993576E+01  9.585135435940E+00  0.000000000000E+00  1.690441749125E+01  7.322896756771E-01  1.435265883208E+01  4.542348456526E-01  2.543996387988E+01  1.537512110869E+01       48
 Ca  7.206379847017E+00  2.182301029330E+01  1.350366666271E+01  0.000000000000E+00 -7.581642483614E-01 -4.519776564325E+00  2.649262977232E+00 -2.796752386323E+00  1.413808249673E+00 -2.295941450110E+00       49
 Si  2.069679436779E+01  2.139075862094E+01  2.283656810184E+01  0.000000000000E+00  5.443000528802E+01 -1.583085743284E+01 -1.589309906583E+01 -1.690087108559E+01 -1.440392451990E+01  5.625504530616E+01       51
 Si  1.963231256760E+01  2.308551344344E+01  2.006863557866E+01  0.000000000000E+00  6.672158025345E+01 -7.585559496991E+01  5.018759014909E+00 -6.594257891570E+01  4.909643473068E+00  7.845748852078E+01       52
 O   2.060790184135E+01  2.216925863062E+01  2.143120013420E+01  0.000000000000E+00 -2.032192123812E+00  2.672639858717E+01 -1.741713099517E+01  2.583662388226E+01 -1.674803667824E+01 -2.186161071940E+00       54
 O   1.937110135573E+01  2.048407965727E+01  2.303269640164E+01  0.000000000000E+00 -2.153891287848E+01  8.431444107284E+00  1.591217386689E+01  9.480479259980E+00  1.338255527666E+01 -2.277644409740E+01       55
 O   2.178689244145E+01  2.011953714538E+01  2.250636458120E+01  0.000000000000E+00 -6.043765166793E+00  1.289565240871E+01  1.174737425690E+01  1.442549361478E+01  1.137184010688E+01 -5.581234593140E+00       56
 O   2.130275563957E+01  2.236619415216E+01  2.416248067011E+01  0.000000000000E+00 -2.358242739289E+01 -3.242130696557E+01 -2.930292944647E+01 -3.502514542822E+01 -2.583481199817E+01 -2.475966764923E+01       57
 O   1.644700082022E+01  2.152880011831E+01  1.785129606688E+01  0.000000000000E+00  3.092942744114E+01 -5.976639158214E+00  1.173276198209E+01 -4.955722312061E+00  1.080978911671E+01  4.048601130580E+01       58
 O   1.702442013011E+01  1.830002660071E+01  1.555832695802E+01  0.000000000000E+00  9.659351197787E+00  1.889077705697E+01  9.224166338301E+00  1.606057151480E+01  1.009337851794E+01  1.038310747234E+01       59
 H   2.815776289882E+00  8.023281104482E+00  1.464905403955E+01  0.000000000000E+00 -1.362630858525E-01 -1.010739970881E+01  1.201839201797E+01 -1.845427607552E+01  2.344723463211E+00 -9.784274893783E-02       70
 H   1.493675221078E+01  1.999825735782E+01  1.832068922617E+01  0.000000000000E+00 -1.576265129337E+00 -1.573520873362E-01 -7.949292430867E+00 -1.441524948697E-01 -6.481012249324E+00 -2.110402266558E+00       73
 H   1.664645636808E+01  1.191401941435E+01  1.621476077950E+01  0.000000000000E+00 -1.540965556597E-01 -3.200344916309E+01  7.235412096757E+00 -4.355610430457E+01  7.428044940760E+00 -1.102882989159E-01       83
 Si  1.998352087930E+00  2.137424351293E+01  2.125030894817E+01  0.000000000000E+00  1.695175571920E+00  1.101375599392E+01  7.101974502361E+01  1.094989478383E+01  7.146678193886E+00 -5.672030190010E+00       89
 Si  2.598271162261E+00  2.081978823282E+01  1.852866583727E+01  0.000000000000E+00  3.881179389897E+00 -7.756064065825E+00 -8.032006007979E-01 -6.902544717607E+00  4.058333185371E-01  1.269152990999E+01       90
 O   1.595718750743E+00  2.085558858956E+01  1.977519425828E+01  0.000000000000E+00  1.003724085358E+01 -2.922615428104E+01  2.636545138791E+01 -2.771213460834E+01  6.438469910502E+00 -9.784904146465E+00       92
 O   7.251461903851E-01  2.092622988576E+01  2.241609535465E+01  0.000000000000E+00  4.964993483272E+01  1.070558575532E+01 -5.099923769133E+01  1.146778146034E+01 -1.812460648025E+01  3.815224372278E+01       95
 O   1.593720872180E+00  1.978144310380E+01  1.766653672647E+01  0.000000000000E+00  5.748397282924E+01 -3.196782480732E+00 -4.406764209325E+00 -2.855002782457E+00 -4.255591418974E+00  1.178127352899E+00       96
 O   3.985118962582E+00  2.013697959349E+01  1.905705124427E+01  0.000000000000E+00 -6.428425355828E-01  1.258998441367E+01 -1.406435798471E+01  1.191479471993E+01 -3.050229643086E+00 -1.885237268704E+00       97
 O   1.076514190814E+01  1.350002019320E+01  2.155862242792E+01  0.000000000000E+00  7.076235720120E+00  1.567071373819E+01 -1.521370225780E+01  2.502507372749E+01 -7.596851992791E+00  8.873949449869E+00       98
 O   3.545705643650E+00  1.283913292717E+01  2.008482215583E+01  0.000000000000E+00  6.823084526124E+00  5.155638539796E+00  1.911469206409E+01  8.065192856782E+00  3.359224478822E+00  1.919042919247E+01      101
 Ca  2.198049890324E+01  2.469083750188E+01  1.781195669448E+01  0.000000000000E+00 -1.422274942738E+00 -7.447201681665E+00 -3.354494261499E+00 -5.372407227529E+00 -4.139548433702E+00 -1.597650701594E+00      102
 O   1.642722129611E+01  3.163706082749E+00  1.177481545027E+01  0.000000000000E+00 -4.027414208691E+01 -2.657359191489E+00 -3.021725423963E+01 -7.785173968364E+00 -4.215654372262E+01 -7.860156993559E+00      105
 Si  6.146608048992E+00  1.614918361546E+01  2.012689058802E+01  0.000000000000E+00 -4.820210043919E+00  6.439742162256E-01 -1.232034883797E+01  8.025915674816E-01 -3.762546181819E+00 -1.266429491581E+01      107
 Si  8.838886607324E+00  1.666820975392E+01  2.106890232149E+01  0.000000000000E+00  2.150028298699E+01 -1.237035076013E+01  2.686863921604E+01 -1.563633501711E+01  1.127200893999E+01  4.054483811329E+01      108
 Si  7.823016948451E+00  1.955895297535E+01  2.061534473345E+01  0.000000000000E+00  8.369547689253E+00  8.174781177942E+01 -7.931458175251E+01  8.616306420708E+01 -3.009793555876E+01  2.092537837483E+01      109
 O   7.820973518840E+00  1.581711685703E+01  2.019057089636E+01  0.000000000000E+00 -9.842392941035E+00 -4.253715432947E+00 -1.936865663706E+01 -5.429873459125E+00 -7.502598684880E+00 -1.990523033048E+01      110
 O   5.813117536486E+00  1.702678581287E+01  1.877638582302E+01  0.000000000000E+00 -1.084691955399E+00 -1.597076825412E+01  1.232987312812E+00 -1.761185639645E+01  3.817294892601E-01 -3.177093441100E+00      111
 O   5.226207796993E+00  1.682694288772E+01  2.130321741884E+01  0.000000000000E+00  3.835665038072E+00 -1.129177639459E+01 -7.781850725758E+00 -1.429559541409E+01 -1.909081062188E+00  1.234978000094E+01      112
 O   5.626768259073E+00  1.450630634998E+01  1.979711032545E+01  0.000000000000E+00  7.655513899553E+00  3.080230315049E+01 -2.562953746363E+01  4.203665488899E+01 -7.284470588100E+00  1.973659208630E+01      113
 O   8.363406853424E+00  1.601989434586E+01  2.260814860586E+01  0.000000000000E+00 -9.974274883976E-01  4.841730870498E+00  6.636781361952E-01  6.832914666386E+00  2.455137025809E-01 -1.910547132505E+00      114
 O   1.317115590887E+01  1.262691244895E+01  3.554697759153E+01  0.000000000000E+00  3.198713733361E+01 -2.626403714026E+01  2.867153864397E+01 -7.393788017956E+01  1.062361222285E+01  3.066540138152E+01      115
 O   8.513677868723E+00  1.819365625030E+01  2.081298362533E+01  0.000000000000E+00  9.025980836455E-01 -1.405313400287E+01  2.160320188559E+01 -1.607635342025E+01  8.836921466803E+00  1.928844327826E+00      117
 O   6.327042549291E+00  1.984321704502E+01  2.110760762868E+01  0.000000000000E+00  5.693005397463E-01  5.457545961733E+00  8.398054998829E+00  5.805295508002E+00  2.517331771729E+00  1.785471503633E+00      118
 O   6.690824195628E+00  9.716429989078E+00  2.233398724972E+01  0.000000000000E+00 -1.403358478259E+01  2.878152403360E+01  8.129688207132E+01  6.615662249577E+01  2.435495012646E+01 -2.037960347619E+01      119
 Ca  2.263749244141E+01  1.926685888172E+01  2.052185789130E+01  0.000000000000E+00  4.698965874436E+00  3.538128129766E+00 -2.228116407507E-02  3.768593683381E+00 -2.457816860476E-02  3.999308343320E+00      120
 Ca  3.449057194191E+00  1.262498116549E+01  1.774595299241E+01  0.000000000000E+00 -6.053265402806E+00 -5.054506128570E+00  2.146488347679E+00 -7.104725700709E+00  3.312369813285E+00 -2.610705936351E+00      121
 Si  1.511782545270E+00  1.679856847645E+01  1.464924565318E+01  0.000000000000E+00  3.884920953763E+00  2.632513152393E+01 -2.443247827769E+01  2.295691558997E+01 -2.706985740176E+00  2.549659606908E+01      125
 Si  2.132812171714E+00  1.910343080431E+01  1.628732380549E+01  0.000000000000E+00  6.281818577548E+00 -2.426941585984E+01  7.324015093597E+00 -2.069177200308E+01 -4.107094789419E-02  5.927586077168E+01      126
 Si  3.187446269657E+00  2.078623407816E+01  1.392548888906E+01  0.000000000000E+00  1.701205789124E+01  1.733415659814E+01  5.487683177356E+01  1.161281087286E+01  1.246749800831E+01  1.096733103716E+02      127
 O   1.091295074787E+00  1.799442798210E+01  1.573249004142E+01  0.000000000000E+00  1.955249440109E+01  2.369985543227E+01 -1.839937885203E+00  2.072073310372E+01 -2.766301935721E+00 -1.166172308450E+01      128
 O   3.119500441976E+00  1.681698322655E+01  1.432473601797E+01  0.000000000000E+00 -3.618594101302E+00 -1.228569506861E+01  6.665011437256E+00 -1.046497676095E+01  1.431636864392E+00 -2.065603502692E+01      129
 O   1.195452985992E+00  1.561470598978E+01  1.569345513103E+01  0.000000000000E+00 -1.129831184011E+00 -3.149249302147E+01  4.132371766989E+00 -3.165131809207E+01  1.971968499830E+00 -1.192060460441E+01      131
 O   3.589507386829E+00  1.833757576054E+01  1.671655117282E+01  0.000000000000E+00 -3.735395562131E+00  4.125347554506E+00 -5.894198802972E+00  3.760670679761E+00 -1.174458736746E+00 -1.749949708923E+01      132
 O   2.412203075232E+00  4.426468191766E+00  9.176532363329E+00  0.000000000000E+00  4.924951200475E+00  2.016635849146E+00  2.246010496148E+00  4.263561973384E+00 -1.543960999476E+00 -9.753935276541E-01      133
 O   2.509570558757E+00  2.038568938669E+01  1.538170346182E+01  0.000000000000E+00  1.664748383589E+00  2.343724705542E+00 -8.389687624464E+00  1.768420862938E+00 -2.188916715275E+00 -7.607124702685E+00      134
 O   2.029022162670E+00  2.099560285167E+01  1.296469489343E+01  0.000000000000E+00 -2.539981187494E+00 -6.662511129650E+00 -9.564714389431E+00 -4.114072105014E+00 -2.341727172077E+00 -3.359257969017E+01      135
 O   7.932584292992E+00  1.624777008625E+01  1.261452314816E+01  0.000000000000E+00  6.909634996225E+00 -1.856248727086E+01  2.839929673109E+00 -1.441163458879E+01  1.785876584751E+00  1.415253297690E+01      136
 Si  8.965745887569E+00  1.387434003649E+01  2.608133638143E+01  0.000000000000E+00 -4.573523766940E+00 -5.969883696020E+00 -3.207258853470E+01 -1.122233882292E+01 -1.102530462984E+01 -7.077450633022E+00      139
 Si  8.393913642629E+00  1.632157466878E+01  2.423678134820E+01  0.000000000000E+00 -3.383812447305E+01 -2.207280443073E+01  1.673494184891E+01 -3.277709078844E+01  5.795804924594E+00 -6.579665919287E+01      140
 O   7.950210341865E+00  1.497954928646E+01  2.534109466338E+01  0.000000000000E+00  9.681009079239E+00 -7.776247580555E+00 -2.124709316647E+01 -1.315517725509E+01 -6.665807537933E+00  1.824066866275E+01      142
 O   8.251300990341E+00  1.225771480127E+01  2.619285259037E+01  0.000000000000E+00  1.279362870583E+01  2.664551347311E+01 -1.105104329354E+01  5.693736703055E+01 -3.481311711187E+00  1.900556677463E+01      143
 O   7.344911239603E+00  1.734059370850E+01  2.501733921592E+01  0.000000000000E+00 -6.048720302305E+00  5.063846048837E+00 -2.707216128220E+01  7.305629580540E+00 -7.948192250416E+00 -1.428041780179E+01      148
 O   1.218651565311E+01  1.519526539147E+01  5.998648196389E-01  0.000000000000E+00  1.035958893096E+01  2.605061163385E+01  2.113698452554E+01 -2.121116788000E+01 -6.302520784967E+00  1.291728559938E+01      150
 Ca  5.941728273110E+00  1.080198923702E+01  7.794589298711E+00  0.000000000000E+00  1.240698487990E+00  5.052109087213E+00  7.348818587214E+00  3.645542923906E+00  5.601922243783E+00  2.255574657344E+00      151
 Ca  1.289593208984E+01  2.226688199299E+01  1.281535866021E+00  0.000000000000E+00 -4.386749629793E+00  1.481170665420E+01 -4.960492177949E+01 -1.324386540580E+01  1.231646914921E+01 -7.574422357289E+00      152
 H   6.856124391807E+00  1.935984462760E+01  1.487424784144E+01  0.000000000000E+00 -8.546334064139E+00 -3.195714037861E+01  3.285065093141E+01 -2.455280171089E+01  1.514215384459E+01 -2.413254050860E+01      155
 H   1.344424310414E+01  1.174749246038E+01  3.596443064246E+01  0.000000000000E+00 -2.339685680375E+01  9.981743209315E+00 -1.620918764490E+00  3.055866709880E+01 -6.059327377791E-01 -2.044402178461E+01      156
 H   1.727764085573E+01  1.905633804411E+01  1.614476629909E+01  0.000000000000E+00  1.388934621823E+01 -1.656545899998E+01  2.332222299946E+00 -1.403446263247E+01  2.495873805027E+00  1.531922552138E+01      159
 H   1.666144405502E+01  3.216680213498E+00  1.070983975417E+01  0.000000000000E+00  1.175179255181E+01 -2.920477236409E+00  1.053410337598E+01 -7.824632677087E+00  1.638804857005E+01  2.874873689468E+00      160
 H   1.630994394103E+01  1.912853134391E+01  2.242906732862E+01  0.000000000000E+00 -1.916917630725E+01 -4.440938136559E+01  6.646368867971E+00 -5.207200630112E+01  4.833099034380E+00 -2.248187922386E+01      164
 H   1.763179081233E+01  9.961084142350E+00  3.678888844590E+00  0.000000000000E+00 -2.327161227545E+00 -3.427979048776E+01 -1.984103126609E+00 -1.266042300397E+01 -9.509200401608E+00 -1.314730253276E+00      168
 H   6.241402096111E+00  2.128543976748E+01  3.176305536309E+01  0.000000000000E+00 -1.043243525249E-01  3.796169600521E+01  1.944562102959E+01  5.664808738095E+01  3.821041095287E+00 -3.557837946916E-01      169
 Si  1.181646905508E+01  6.338042817134E-01  1.947454790132E+01  0.000000000000E+00  1.947747674559E+01 -3.621584394824E+01  2.885581377729E+01  1.116536175990E+02  1.750869043463E+01 -4.117886993644E+01      177
 Si  1.050901130061E+01  3.385399785422E+00  1.876630700554E+01  0.000000000000E+00  1.216260251593E+00 -3.714963713903E+00  7.930799288554E+01 -2.451307978703E+01  4.441196625511E+01  2.168918408350E-01      178
 Si  8.014321118349E+00  4.271508970232E+00  2.018123599973E+01  0.000000000000E+00 -8.875122740095E+00  5.737260680868E-01 -1.516272630648E+01  2.710634873987E+00 -6.021383311279E+00 -4.730302896078E+00      179
 O   1.096346500623E+01  1.816879368187E+00  1.866825812735E+01  0.000000000000E+00 -4.956573966463E+00  1.070868934247E+00  5.079962985793E+00 -1.916063794529E+01  2.983352600322E+00  2.706666639297E+00      180
 O   1.241603810491E+01  1.215780006035E+00  2.101586319797E+01  0.000000000000E+00  5.953337188825E+00 -4.141880887586E+00  5.303215340384E+00 -1.450477300737E+01  3.133105841263E+00 -6.353189094674E-01      182
 O   1.140644178112E+01  4.074872348254E+00  1.775139802921E+01  0.000000000000E+00  3.552015936582E+01  1.693209706264E+01 -1.081007524636E+02  7.393528242692E+01 -6.946184956483E+01  1.267401492264E+01      184
 O   1.131288043575E+01  3.932772669736E+00  2.012364468036E+01  0.000000000000E+00 -6.297126719181E+00 -1.163021075173E+00  9.373495025285E+00 -7.342654584348E+00  5.269484239584E+00 -2.245034146750E+00      185
 O   8.958681128594E+00  3.755211743468E+00  1.872886965003E+01  0.000000000000E+00 -1.755203568708E+01 -2.909216345429E-01  2.473569183240E+01  1.093549114380E+00  1.183195674712E+01 -7.286044708977E+00      187
 O   6.380821650640E+00  4.530396948727E+00  1.970036858342E+01  0.000000000000E+00  2.187962059002E+01 -2.386407039112E+00  9.829407593443E+00 -1.028603601818E+01  3.183681387464E+00  1.553126983001E+01      188
 Ca  1.185450681915E+01  2.790370546895E+00  2.235965179870E+01  0.000000000000E+00 -1.802032678846E+01 -9.142403682437E+00 -1.463296307674E-01 -6.091747529201E+00 -7.758017080915E-02 -5.501754767052E+00      190
 O   1.549173045525E+01  1.987826638101E+01  8.943385281203E+00  0.000000000000E+00 -2.330741052917E+01  1.771343883826E+01 -8.260273392446E+00  7.969412681629E+00 -1.430844415833E+01 -2.990698272789E+01      193
 O   4.361655169013E+00  1.222788177200E+01  1.359349635796E+01  0.000000000000E+00 -4.137647706669E+00 -1.604402044500E+01 -3.636401270409E+00 -1.783582288027E+01 -1.099318127170E+00 -1.292967480825E+01      194
 Si  1.764916152319E+01  1.859246296031E+00  1.993654603351E+01  0.000000000000E+00 -3.192593026559E+01 -1.487260543917E-01 -1.404034404265E+01 -1.782486748608E+01 -1.242944988733E+01 -5.287382234496E+00      196
 Si  1.563433397496E+01  3.831550768715E+00  1.981189157925E+01  0.000000000000E+00  2.489317479195E+00  1.036347031503E+01 -1.513289646248E+01  5.903403132264E+01 -1.194195699873E+01  9.334525279660E-01      197
 O   1.879390123425E+01  2.346050283210E+00  2.095014926492E+01  0.000000000000E+00  2.929880594971E+01  7.870198425921E+00 -2.209739359840E+01  1.358905189039E+01 -1.982306796821E+01  5.606461327122E+00      202
 O   1.613844821128E+01  2.462933722435E+00  2.040477904829E+01  0.000000000000E+00  2.674202085657E+01 -7.426258597269E-01  1.093722530589E+01 -3.566492802760E+01  8.650416834038E+00  2.376953310667E+00      205
 O   1.498244590113E+01  4.794865605144E+00  2.091851211532E+01  0.000000000000E+00 -4.637648943290E+00  2.303935698925E+00  5.272304884912E+00  1.005135718073E+01  3.776177879047E+00 -1.484197143354E+00      206
 Ca  1.337777664388E+01  5.609427909533E+00  1.907523465765E+01  0.000000000000E+00  7.584632045228E+00 -3.188811551457E+00  1.449111127218E+01 -1.084376688747E+01  1.016285531476E+01  3.180307745495E+00      209
 O   2.286418337289E+01  1.836854543834E+01  1.454598716082E+01  0.000000000000E+00  3.387731068111E+00 -3.453525392421E+01 -3.997968435756E+01 -2.734834730728E+01 -6.284226874634E+01  2.721623206158E+00      210
 O   1.265783502409E+01  1.735465503806E+01  4.100983189865E+00  0.000000000000E+00  3.738183569323E+01  1.165447793748E+01 -4.188438406760E+00  2.754651729531E+00 -1.292147017792E+01  5.125275072007E+01      212
 Si  1.300063177618E+01  4.085240155231E+00  1.415952556927E+01  0.000000000000E+00 -2.141864673333E+00  2.516864648444E-01  3.054171271924E-02  8.723504124572E-01  2.804201023081E-02 -6.730466427486E-01      213
 Si  1.162978213802E+01  5.400061635257E+00  1.654886713827E+01  0.000000000000E+00 -3.220408182845E+01  3.478341977256E+00  4.796477206779E+01  1.065962263602E+01  3.370743415772E+01 -1.495333487048E+01      214
 Si  9.615908983413E+00  6.974215797242E+00  1.465460741713E+01  0.000000000000E+00  2.623975085326E+00 -1.602347123593E+01  2.238579204238E+01 -3.366940273271E+01  1.468887788489E+01  1.903113738204E+00      215
 O   1.267069205230E+01  5.001895773600E+00  1.548711676558E+01  0.000000000000E+00  3.507984826110E+01 -1.791974587312E+00 -7.495216611646E+00 -5.548400232794E+00 -6.132166689832E+00  1.384815794050E+01      216
 O   1.390062863103E+01  2.750736524553E+00  1.469452866518E+01  0.000000000000E+00  2.376784968884E+00  3.783553523857E+00  5.394249943020E+00  1.603428054553E+01  5.102815266105E+00  6.801478421017E-01      217
 O   1.369476851612E+01  4.961229498005E+00  1.303458528290E+01  0.000000000000E+00  1.519981374944E+00  1.006505384332E+00 -1.433566829502E+00  2.644380848548E+00 -1.506174953504E+00  5.506465059933E-01      218
 O   1.151725714749E+01  3.724611101141E+00  1.384625438523E+01  0.000000000000E+00 -7.284537460885E+00 -2.099783325264E+00 -1.275812223778E+00 -6.304523907312E+00 -1.061215332635E+00 -2.534205610253E+00      219
 O   1.221957815146E+01  6.710333098643E+00  1.755649899665E+01  0.000000000000E+00 -4.519922758992E+00 -7.589994966014E+00 -1.155042340397E+01 -1.985799170422E+01 -8.039262354880E+00 -2.482097738320E+00      220
 O   1.026325392583E+01  6.109391988819E+00  1.606491510015E+01  0.000000000000E+00  3.265063820694E-01  9.739964960030E-01 -6.056990610162E+00  2.561166650424E+00 -3.869577415811E+00  1.943589712706E-01      222
 O   1.080831368612E+01  7.157638982027E+00  1.363180396622E+01  0.000000000000E+00 -3.364280593284E+00  3.687188256910E+00 -2.162314119428E+00  7.022291516930E+00 -1.714444350037E+00 -2.227942916933E+00      223
 O   2.177622623562E+01  2.017383061861E+01  1.308220595463E+01  0.000000000000E+00  2.552034869699E+01  1.055284789990E+01 -4.427070104312E+01  6.843248178509E+00 -7.369160865284E+01  2.364244320252E+01      224
 Ca  1.568707166363E+01  6.894198462976E+00  6.668627329013E+00  0.000000000000E+00  9.375469878810E+00 -1.628927579965E-01 -4.882226545315E+00 -1.575630732865E-01 -1.148479798252E+01  4.120357923654E+00      225
 Ca  1.683865896088E+01  4.185575041999E+00  1.686166339804E+01  0.000000000000E+00  3.436792417166E+00 -4.845160963917E+00 -3.167789694727E+00 -1.269767950755E+01 -3.163467866135E+00  9.895704182670E-01      226
 Si  2.041141046834E+01  2.411971513451E+00  2.026002218826E+01  0.000000000000E+00 -1.914500609067E+01 -1.850217983196E-01  2.509706617343E+01  4.164583076646E+00  2.528459813404E+01  1.256300239646E+00      228
 Si  2.238420914947E+01  4.569278866621E+00  2.024332321304E+01  0.000000000000E+00 -1.562439528102E+01  7.128398334676E+00 -1.181988622315E+01  3.263484502430E+01 -1.306992940623E+01 -3.170376280772E+00      229
 O   2.141146078203E+01  1.289334418841E+00  2.092771640450E+01  0.000000000000E+00  4.702028025869E+00  1.963612475221E+01  2.431593784894E+01  1.057066342371E+01  2.487800099962E+01 -7.201795888080E+00      230
 O   2.071383248096E+01  4.056182376384E+00  2.041572616585E+01  0.000000000000E+00  4.085190408673E+01 -1.987473707830E+00  3.001619993189E+00 -9.974304869845E+00  3.045449042828E+00  8.020631526858E+00      236
 O   2.329244993827E+01  3.992520626538E+00  2.150018538521E+01  0.000000000000E+00 -1.554727693864E+01 -3.457595392096E+00  1.136758035091E+01 -1.654151671180E+01  1.231518665998E+01 -2.726108532566E+00      237
 H   1.223841766602E+01  1.709210839127E+01  4.887791140650E+00  0.000000000000E+00 -1.205607875135E+01 -1.858303206882E+01  1.143271355239E+01 -5.314147174424E+00  2.862608476587E+01 -1.683745484221E+01      243
 H   1.818220185986E+01  1.929449605853E+01  7.052879723788E+00  0.000000000000E+00  2.185182082794E+01 -6.785393929135E+01  1.439507975594E+01 -2.480322218085E+01  3.711026646724E+01  2.318860356331E+01      247
 H   1.378157385478E+01  8.071611938555E+00  8.671064891967E+00  0.000000000000E+00 -2.183712330266E+01  1.825201155132E+01  1.129207745523E+01  1.960753041341E+01  1.794734572536E+01 -1.278959769114E+01      248
 H   5.773807560483E+00  7.928658337441E+00  7.732228534430E+00  0.000000000000E+00 -2.235948517566E+01 -4.928601248995E+00 -1.257705510582E+01 -4.806496835959E+00 -9.391535122797E+00 -3.070429984057E+01      249