     8448
Lattice="     49.70      0.00      0.00      0.00     49.70      0.00      0.00      0.00     49.70" pbc="T T T" config_type=md Properties=species:S:1:pos:R:3:charge:R:1:forces:R:3:id:I:1
 Si  1.061593769555E+01  1.769427380543E+01  1.622984895090E+01  0.000000000000E+00 -1.378498304234E+01  3.124898246656E+01 -2.545704501218E+01  2.866273410701E+01 -1.665144294194E+01 -2.297632779595E+01        1
 Si  1.200517490768E+01  2.030070431585E+01  1.667369958198E+01  0.000000000000E+00  2.510969969663E+01  5.034021005607E+00  1.444207233914E+01  4.134622751554E+00  1.039838840853E+01  4.246040502709E+01        2
 Si  1.063244321854E+01  2.250619624287E+01  1.770166103478E+01  0.000000000000E+00 -1.804201928022E+01  4.075580471178E+01 -4.326623380155E+01  3.205541409229E+01 -2.598771794755E+01 -3.819039690052E+01        3
 O   1.072329571291E+01  1.949168650029E+01  1.622826969586E+01  0.000000000000E+00 -2.302209601411E+00 -1.911837851485E+01  6.133407995049E-01 -1.591746320575E+01  4.052825648787E-01 -4.184716062120E+00        4
 O   9.054887473864E+00  1.781327596189E+01  1.562532417748E+01  0.000000000000E+00 -1.668793682408E+00 -1.450558102827E+01  1.111836143025E+01 -1.272390358934E+01  6.443099067972E+00 -3.282943324695E+00        5
 O   1.140576133305E+01  1.732995961428E+01  1.487034003655E+01  0.000000000000E+00  9.413098438489E+00 -1.731887816866E+01  1.241090591716E+01 -1.486083136670E+01  9.519340544336E+00  1.430229960289E+01        6
 O   1.081143506193E+01  1.711390794570E+01  1.773550387956E+01  0.000000000000E+00  9.056843647130E+00  2.232295253420E+00 -2.150442699956E+01  2.313374668893E+00 -1.310894337306E+01  1.433648609714E+01        7
 O   1.276514628816E+01  2.135295795791E+01  1.554625094522E+01  0.000000000000E+00 -6.626890129152E+00 -4.341409401326E+00  7.772511327680E+00 -3.160809857914E+00  6.382068864950E+00 -1.108516135461E+01        8
 O   1.329150158453E+01  1.936813080713E+01  1.718759294386E+01  0.000000000000E+00 -1.245791959738E+01  4.345786412037E+01 -1.511079048645E+01  3.856521241767E+01 -1.168546964955E+01 -1.815345051965E+01        9
 O   1.137493752423E+01  2.118969699473E+01  1.799435865837E+01  0.000000000000E+00  3.431980087937E+01 -6.827340359876E+01 -1.257639024891E+01 -5.797799333747E+01 -7.950027899166E+00  6.393232314501E+01       11
 O   1.922759430238E+01  1.781856476710E+01  2.131020462320E+01  0.000000000000E+00  1.270805107323E+01  5.032096725065E+00 -3.150653310922E+01  6.018162085246E+00 -2.842745281943E+01  1.177678432106E+01       13
 Ca  2.989062499800E+00  1.646640715113E+01  1.652920090716E+01  0.000000000000E+00 -3.326035457652E+00 -7.180919778213E+00 -3.499426641175E+00 -7.208303828691E+00  2.843518176209E-02 -8.174533554010E+00       14
 Ca  2.029255515059E+01  1.437236878789E+01  1.856454097717E+01  0.000000000000E+00  2.386822860389E+00  5.074557914270E+00  1.135763042666E+00  6.554718970188E+00  1.241481500116E+00  1.690486886757E+00       15
 O   7.441910910391E+00  4.268546732324E+00  1.647977075499E+01  0.000000000000E+00 -1.179989940007E+01  2.498150268516E+00 -4.257378101450E+01  9.644721334523E+00 -1.922540611388E+01 -6.768210830850E+00       16
 O   9.282208060531E+00  1.671688103612E+01  1.967194319678E+01  0.000000000000E+00  2.033995124951E+00  1.340330447530E+00  2.667631239296E+01  1.577262192138E+00  1.258722025792E+01  3.663142897694E+00       18
 Si  2.030335316653E+01  2.015467692781E+01  1.841667430634E+01  0.000000000000E+00 -3.503988419784E+01  7.247383894570E+01 -6.729342920999E+01  6.622418669243E+01 -7.418724120928E+01 -3.478329612862E+01       19
 Si  1.806406821454E+01  2.206916403683E+01  1.883890363508E+01  0.000000000000E+00 -1.831481870389E+01  8.933557720998E+01 -1.872703004842E+01  7.625954147761E+01 -1.795679593692E+01 -2.237550996156E+01       20
 O   1.886761414572E+01  2.078007951457E+01  1.897375972593E+01  0.000000000000E+00  2.932649681947E+01 -6.949537567846E+01  2.783393145857E+01 -6.345445209976E+01  2.767821910388E+01  3.229909892612E+01       22
 O   2.127253239692E+01  2.142205285706E+01  1.798605466781E+01  0.000000000000E+00 -2.977008237909E+00 -2.700880228121E+01 -6.530602559238E+00 -2.267671532617E+01 -7.723898157692E+00 -2.997933045227E+00       23
 O   1.974550725174E+01  1.958721874944E+01  1.701416587918E+01  0.000000000000E+00  7.823147636066E+00 -7.376878678485E+00 -1.585200084452E+01 -6.407823341938E+00 -1.839677594851E+01  7.760433910518E+00       24
 O   2.094548572085E+01  1.919256929278E+01  1.941937388732E+01  0.000000000000E+00  3.706585875758E+01 -8.769145534979E+01  7.663443016359E+01 -8.872773270648E+01  8.265690603780E+01  3.396383698532E+01       25
 O   1.851262521720E+01  2.309566495022E+01  2.017228461738E+01  0.000000000000E+00 -2.638718649213E+01 -4.946956655854E+01 -4.959151571956E+01 -4.320785648167E+01 -4.551141141831E+01 -3.291967568354E+01       26
 O   2.158631633510E+01  1.685821595005E+01  2.115397890979E+01  0.000000000000E+00 -5.522376428570E+00  3.317828274524E+01 -1.901302465846E+01  4.163267901750E+01 -1.940160602952E+01 -4.312797651301E+00       27
 O   1.900614052955E+01  2.278298125333E+01  1.741981326637E+01  0.000000000000E+00 -3.590784143298E+01  8.217297417460E+00  1.904928670385E+00  6.282926056722E+00  2.078400121430E+00 -4.304333522859E+01       29
 Ca  5.131378505950E+00  1.036128575414E+01  1.443018009514E+01  0.000000000000E+00  2.105626735161E+00  2.026152153495E+00  2.808497140847E+01  2.821825511704E+00  9.987028413746E+00  4.251684078512E+00       32
 Si  1.408532093858E+01  1.967305824432E+01  1.312719904584E+01  0.000000000000E+00 -2.691330410623E+00 -1.224189743373E+01 -1.394391986746E+01 -8.168624436296E+00 -1.496165219932E+01 -3.758998474637E+00       37
 Si  1.257325343235E+01  2.190447051046E+01  1.394225098883E+01  0.000000000000E+00  9.889420382442E+00  5.655289896415E+01  2.399741614671E+01  3.599606350346E+01  2.164109620290E+01  1.722883566280E+01       38
 O   1.261768749758E+01  2.052022249507E+01  1.309546000515E+01  0.000000000000E+00 -9.703528525476E+00  1.602528427984E+01 -3.401016993933E+00  1.022691003512E+01 -3.276934875638E+00 -1.578090790156E+01       40
 O   1.423991689930E+01  1.889165123997E+01  1.451825370327E+01  0.000000000000E+00  9.544588617721E+00  2.909193508456E+00  8.351371457549E+00  2.235718248827E+00  8.191263080342E+00  1.266250643667E+01       41
 O   1.524343127502E+01  2.073424560128E+01  1.305099008901E+01  0.000000000000E+00  1.785845883740E+01  3.135300491705E+01  2.737745239802E+00  1.973487554366E+01  3.197660187221E+00  2.429122845865E+01       42
 O   1.410783826940E+01  1.877689317396E+01  1.179889903869E+01  0.000000000000E+00 -2.438304575201E+00 -8.223360793890E-02 -2.850749467519E+00 -5.167340670625E-02 -3.408615693929E+00 -3.245272851861E+00       43
 O   1.378366990399E+01  2.323685062168E+01  1.367743875573E+01  0.000000000000E+00 -3.652225023187E+01 -6.134811075825E+01  1.257864675150E+01 -3.611010120679E+01  1.267634370426E+01 -6.157011005898E+01       44
 O   1.105561646274E+01  2.278331468094E+01  1.410287334583E+01  0.000000000000E+00  4.267103669267E+00 -2.154462657964E+01 -2.250803834698E+01 -1.333612532640E+01 -1.764464823521E+01  8.793608750875E+00       46
 O   8.269437874612E+00  2.178372277314E+01  1.411985264577E+01  0.000000000000E+00  7.291925298545E+00 -5.492947293797E+00 -2.808037246559E+00 -3.560438552542E+00 -1.644556083025E+00  1.920871546464E+01       47
 O   1.677297734390E+01  1.584567903159E+01  1.096326215347E+01  0.000000000000E+00  8.843393208778E+00 -9.061418640727E+00 -8.067897779024E+00 -6.269387878080E+00 -1.234328476016E+01  8.354483969262E+00       48
 Ca  6.439476598266E+00  2.089738625165E+01  1.306628332063E+01  0.000000000000E+00 -1.214238752267E-02 -8.563628765665E+00  2.090965224630E+00 -5.354487798494E+00  1.030493622508E+00 -3.940446994508E-02       49
 Si  2.022968159127E+01  2.013358813677E+01  2.339355727156E+01  0.000000000000E+00  2.847963669794E+01 -1.595861460655E+01 -3.915707010948E+01 -1.854258477113E+01 -3.386124868341E+01  2.834435495063E+01       51
 Si  1.942332426846E+01  2.251016070586E+01  2.141357248289E+01  0.000000000000E+00  1.939696058844E+01 -5.355847010839E+01 -3.361662169232E+01 -5.094935556991E+01 -3.049218174416E+01  2.247960719886E+01       52
 O   1.950766711577E+01  2.087160505103E+01  2.211851176286E+01  0.000000000000E+00 -1.362183255562E+01  3.801824136694E+01 -8.771008382050E-01  4.028951855030E+01 -7.735688260634E-01 -1.457424444885E+01       54
 O   1.957035924916E+01  1.865934194718E+01  2.371365726106E+01  0.000000000000E+00 -2.426408681608E+00  6.254207916982E-01  2.893611843124E+01  7.948305111858E-01  2.388034147333E+01 -2.313457239968E+00       55
 O   2.186442163319E+01  1.963355757292E+01  2.296669436961E+01  0.000000000000E+00 -3.081065196549E+01  2.258007460103E+01  7.772639219557E+00  2.641343374876E+01  7.399596056974E+00 -2.766698883566E+01       56
 O   2.029954623504E+01  2.101709045978E+01  2.473928420636E+01  0.000000000000E+00  8.834776493188E+00  3.961573333339E+00 -1.784113128601E+01  4.663180604632E+00 -1.463934309517E+01  9.147066372780E+00       57
 O   1.646916198119E+01  2.188557849692E+01  1.869776742777E+01  0.000000000000E+00  1.540774414815E+01  7.524873137173E+00 -5.675455176075E+00  6.428814658115E+00 -4.998992043988E+00  2.047507908417E+01       58
 O   1.505358256378E+01  1.196710502620E+01  1.158237110332E+01  0.000000000000E+00 -5.003053016932E+00 -3.557874023423E+01  2.065779072728E+00 -3.443490901762E+01  2.684888573542E+00 -3.977263262856E+00       59
 H   4.230312932059E+00  5.543184824974E+00  1.713024894294E+01  0.000000000000E+00  2.259188988167E+00 -6.181923831825E+00 -2.449225464576E+01 -1.910416079009E+01 -6.048359361754E+00  2.960325232928E+00       70
 H   1.330579933969E+01  1.849829171149E+01  1.760595776216E+01  0.000000000000E+00  2.733194850418E+00 -1.544848232844E+00  9.510352117767E+00 -1.470326728576E+00  7.187500881138E+00  3.799804457937E+00       73
 H   1.556620738106E+01  1.084037114667E+01  1.608307562346E+01  0.000000000000E+00 -4.273085559464E+00  5.920899985959E+00  3.579869962599E+00  8.784411616976E+00  3.464822247913E+00 -2.975794441903E+00       83
 Si  2.188222678518E+00  2.120891792263E+01  2.091926067775E+01  0.000000000000E+00  1.277084791922E+01  6.574259242858E+01 -6.540217517266E+01  6.484472398174E+01 -7.071142850330E+00  4.058327912145E+01       89
 Si  2.185802895492E+00  2.112638828685E+01  1.772134165802E+01  0.000000000000E+00 -1.321475812611E+01  4.182615621378E+01  1.490486772440E+01  3.508482351276E+01  3.871891752955E+00  9.809309257639E+00       90
 O   1.571272628245E+00  2.117636513951E+01  1.922745795856E+01  0.000000000000E+00  3.386129631273E+01 -9.225883004304E-01  3.372846152972E+01 -8.376804821186E-01  6.442338950015E+00 -7.920008769202E+00       92
 O   1.847552242736E+00  1.996508679895E+01  2.172871245319E+01  0.000000000000E+00  6.139712223361E+00 -5.092299053551E+01  1.199313220310E+01 -5.542129767554E+01  9.856346169526E-01  8.561371236427E+00       95
 O   1.445386912789E+00  2.004000234922E+01  1.684787410788E+01  0.000000000000E+00  2.204304853040E+01 -4.083887548739E+01 -4.593772043402E+01 -3.433374013282E+01 -1.193091163570E+01 -2.578210041442E+01       96
 O   3.657219476932E+00  2.053344985426E+01  1.778859284092E+01  0.000000000000E+00  5.601953528146E+00  1.150678589310E+00 -2.094347597481E+00  9.968589331697E-01 -4.606519044451E-01  3.016694532546E+01       97
 O   1.130179204604E+01  1.554546306662E+01  2.083603620802E+01  0.000000000000E+00 -2.061702987937E+01 -4.677889006866E+00 -3.385059065020E+01 -6.269910668240E+00 -1.836109000506E+01 -2.835844751236E+01       98
 O   3.462944485006E+00  1.238888109439E+01  2.026051823498E+01  0.000000000000E+00  2.204167225080E-01  7.498675735801E+00 -2.845029312109E+01  1.226317819389E+01 -4.836089641512E+00  1.963491753686E+00      101
 Ca  2.170498285786E+01  2.336729614120E+01  1.861966127640E+01  0.000000000000E+00  5.803005096084E+00  8.764358039922E-01  1.538625404311E+01  6.983665419498E-01  1.793579245588E+01  6.247438179384E+00      102
 O   1.710674226468E+01  4.021403504388E+00  1.066892624497E+01  0.000000000000E+00  2.148000373496E+01  1.323671917243E+01 -6.031361187808E+00  3.512353194019E+01 -9.670789634873E+00  5.049941689910E+00      105
 Si  5.143449871150E+00  1.621503519156E+01  1.957058769587E+01  0.000000000000E+00  1.720886343680E+01 -2.595524866364E+01 -3.234647427486E+00 -3.132644882599E+01 -8.501148331705E-01  5.425197741297E+01      107
 Si  8.001174115252E+00  1.703348702081E+01  2.059634666670E+01  0.000000000000E+00 -9.430218732521E+00 -3.476233178908E+01 -3.867155224987E+01 -4.203349763887E+01 -1.502294692673E+01 -2.007574214359E+01      108
 Si  7.225623701381E+00  1.970895962430E+01  1.948433696293E+01  0.000000000000E+00  1.422693078790E+01  2.472691338077E+01  1.116228044615E+02  2.444510118992E+01  4.139449974951E+01  3.880606243347E+01      109
 O   6.858117094963E+00  1.633951960101E+01  1.949240213490E+01  0.000000000000E+00 -6.485041472846E+00  9.193122380343E+00  1.424962575650E+01  1.096703224383E+01  5.013522772676E+00 -1.545066390551E+01      110
 O   4.474669849903E+00  1.679943421670E+01  1.827615948269E+01  0.000000000000E+00 -2.113396407268E+00  1.955669685491E+01 -2.154213478270E+01  2.127579453359E+01 -5.274299620005E+00 -7.934409712592E+00      111
 O   4.758753413129E+00  1.683778435204E+01  2.097149181392E+01  0.000000000000E+00 -3.097638274542E+00 -1.371901962897E+00 -5.488137623838E+00 -1.708706453466E+00 -1.245342671895E+00 -1.096030004905E+01      112
 O   5.159074189576E+00  1.443987420168E+01  1.937015689265E+01  0.000000000000E+00 -3.180254456296E+00  8.522281309089E+00  1.842563231169E+01  1.143208893199E+01  4.907508215483E+00 -8.901301394547E+00      113
 O   7.616465971482E+00  1.632050803021E+01  2.207338412980E+01  0.000000000000E+00  9.856690505907E+00  1.466842344623E+01 -1.307789925217E+01  1.983895015448E+01 -4.512555666448E+00  2.112084491092E+01      114
 O   1.273738282847E+01  1.361331280372E+01  3.627565820543E+01  0.000000000000E+00  2.934042692320E+01  1.506737148332E+01  3.485064449961E+01  4.015031652205E+01  1.223702126359E+01  3.135812237719E+01      115
 O   7.711396276009E+00  1.860314636612E+01  2.061613725566E+01  0.000000000000E+00  1.881994039295E+00  1.582404705553E+01  8.556428549906E+00  1.753631991150E+01  3.200503102859E+00  4.540164883251E+00      117
 O   5.805297164138E+00  2.016745707605E+01  1.996117350380E+01  0.000000000000E+00 -1.223307528020E+01  9.286565876191E+00  3.763451925044E+00  9.191577897508E+00  1.094522663393E+00 -4.249739740209E+01      118
 O   6.737506147513E+00  1.014558463584E+01  2.131438597425E+01  0.000000000000E+00 -4.670784171710E+00 -5.251596496132E+00  3.301342066195E+01 -1.103283435280E+01  1.043558678768E+01 -7.033438648115E+00      119
 Ca  2.330272777427E+01  1.915197068996E+01  2.077083041020E+01  0.000000000000E+00 -3.185294785024E+00 -7.244938443952E-01 -5.779866917619E-01 -7.857331769548E-01 -6.484414089032E-01 -2.617919796883E+00      120
 Ca  3.128096072807E+00  1.226426391597E+01  1.785706080559E+01  0.000000000000E+00 -3.197821303110E-01  1.154978571461E+01 -3.588694970664E+00  1.681676350170E+01  4.113713756181E-02  4.264808670486E+00      121
 Si  9.267051404348E-01  1.718646864131E+01  1.385153810598E+01  0.000000000000E+00 -2.301811608060E+02 -8.574711239952E+00 -1.127257128793E+01 -6.910840264324E+00 -1.386413439607E+02  4.374903759314E+01      125
 Si  2.161066412872E+00  1.952812239146E+01  1.530650678656E+01  0.000000000000E+00 -3.885657759188E+00 -4.656690254021E+01  3.308173415345E+01 -3.650000729577E+01  2.032497507587E+00 -2.591851719378E+00      126
 Si  3.213309338322E+00  2.102774414093E+01  1.302307178704E+01  0.000000000000E+00  1.849446279070E+00 -4.718315508228E+01  3.988860641839E+00 -2.922185145764E+01  3.733063499835E-01  5.022427128548E+01      127
 O   9.521140985385E-01  1.851911741212E+01  1.476446149617E+01  0.000000000000E+00  3.151971158910E+01  3.885820119564E+01  1.396056773064E+01  3.097990053177E+01  2.380231120590E+01 -1.697165794001E+00      128
 O   2.521014793043E+00  1.709693830759E+01  1.321461879030E+01  0.000000000000E+00  6.238066722501E-01 -4.460056870200E+00  3.618349797994E-01 -3.447281043098E+00  1.676874782562E+00 -5.140032329048E+01      129
 O   9.053947894190E-01  1.599162455955E+01  1.500197726101E+01  0.000000000000E+00  2.014333291265E+01 -3.590544408410E+01 -3.568407332671E-01 -3.368342307503E+01  1.872000892470E+01  1.895329496668E+01      131
 O   3.422902965860E+00  1.843623700870E+01  1.551773268343E+01  0.000000000000E+00 -1.541999000381E+00  2.018549494422E+01  6.230580890963E+00  1.699007853279E+01  1.103055288279E+00 -5.842853409027E+00      132
 O   2.790018868719E+00  4.937208000876E+00  9.608727784031E+00  0.000000000000E+00 -8.017326960334E+00 -9.714289629466E+00 -1.425276233759E+01 -1.890581977673E+01 -4.275906385908E+00 -1.619275326326E+01      133
 O   2.550167789955E+00  2.087851191145E+01  1.460568477279E+01  0.000000000000E+00  8.413465987330E+00  7.352966527392E+00 -1.202904470035E+01  5.143810617319E+00 -1.539356721292E+00  2.803746802713E+01      134
 O   1.822392652594E+00  2.126240764490E+01  1.236734288559E+01  0.000000000000E+00  2.483500502993E+01  2.438501658871E+01 -3.953238983604E+01  1.418361770031E+01 -1.369892422254E+01 -3.056612807173E+01      135
 O   8.403107618543E+00  1.466784914839E+01  1.291112501368E+01  0.000000000000E+00  7.143642402868E+00 -4.782197559700E-01 -5.872012103460E-01 -4.209448154856E-01 -3.821754462953E-01  1.246941892117E+01      136
 Si  8.519942950467E+00  1.424187270861E+01  2.540707870768E+01  0.000000000000E+00  7.285423833955E+00 -6.954974876204E+00 -9.601541110759E+00 -1.240746899689E+01 -3.219755542989E+00  1.217825981637E+01      139
 Si  8.062943496746E+00  1.653260659289E+01  2.366005682918E+01  0.000000000000E+00  2.623254817155E+01 -5.706273605621E+01 -2.821631841661E+01 -8.166332213449E+01 -9.615639671616E+00  5.378834652932E+01      140
 O   7.714817748191E+00  1.494039939852E+01  2.414849542974E+01  0.000000000000E+00  3.302960793379E+00  9.172286185409E+00  3.095309312534E+01  1.482536745641E+01  9.888710164139E+00  6.396463929729E+00      142
 O   7.788310141959E+00  1.275461465321E+01  2.559163591943E+01  0.000000000000E+00  7.614628930292E-01  8.791201678183E+00  1.003450730046E+01  1.763920265406E+01  3.053804579895E+00  1.247018364225E+00      143
 O   7.363819467299E+00  1.775511755764E+01  2.429292547911E+01  0.000000000000E+00 -1.260407891369E+01  4.099616456228E+01  3.209113361981E+01  5.609181507288E+01  9.727659794638E+00 -3.039005828594E+01      148
 O   1.242422968003E+01  1.563493104465E+01  1.625118441925E+00  0.000000000000E+00  1.249077994967E+01  1.882892498224E+01  2.910626936031E+01 -4.005851938082E+00 -1.512592610062E+01  1.571867940601E+01      150
 Ca  4.752500128711E+00  1.172851475870E+01  7.496452069307E+00  0.000000000000E+00  5.881108773483E+00 -3.209843858020E+00 -1.977482474516E+00 -2.051618736615E+00 -1.253657814093E+00  1.451376521393E+01      151
 Ca  1.171957009954E+01  2.180566646208E+01  1.383455596261E+00  0.000000000000E+00  1.420390932540E+01 -5.957074080970E+00 -3.423906802552E+01 -1.559755811800E+01  1.352599580621E+01  2.642807770052E+01      152
 H   7.092382374247E+00  1.879425248062E+01  1.497035804439E+01  0.000000000000E+00 -5.520757391867E+00  7.265862819703E+00 -2.074849117786E+00  5.787544251868E+00 -9.829840588024E-01 -1.462957054935E+01      155
 H   1.245732994548E+01  1.453202882189E+01  3.622988404055E+01  0.000000000000E+00  7.614654098481E+00  1.525938834059E+01  6.407098107985E+00  3.804326821017E+01  2.203024857461E+00  8.882832301316E+00      156
 H   1.541870858372E+01  1.106964260701E+01  1.124497684404E+01  0.000000000000E+00 -1.363725170573E+01  2.560714443067E+01  8.578306172840E+00  2.601274100598E+01  1.176226548577E+01 -9.790670969920E+00      159
 H   1.660114605947E+01  3.215578064202E+00  1.070134967594E+01  0.000000000000E+00 -2.569952087911E+01 -5.256261189439E+00  7.660635624953E+00 -1.845993182270E+01  1.188404591658E+01 -5.025362626655E+00      160
 H   1.535040484404E+01  1.604130979410E+01  1.552950085089E+01  0.000000000000E+00 -5.023425899484E+01 -1.252500855097E+01  4.343168826848E+01 -1.212538960012E+01  4.293080662300E+01 -5.249524810587E+01      164
 H   1.954073972489E+01  6.274870216085E+00  6.727194745461E+00  0.000000000000E+00  5.698241616469E+01  9.320569301468E+00  5.157286508580E-01  9.992443296886E+00  1.498056725931E+00  1.829804147982E+01      168
 H   5.095194701397E+00  2.084265089545E+01  3.334052559315E+01  0.000000000000E+00 -1.875373369419E+01  2.368200457140E+01 -1.136269303607E+00  3.788244036090E+01 -1.736479324216E-01 -7.671493383108E+01      169
 Si  1.169514382484E+01  5.226571927647E-01  1.942477636146E+01  0.000000000000E+00  1.114696044728E+01 -1.651182356412E+02 -3.050771961179E+01 -5.118724488162E+00 -1.836789067676E+01 -7.215590999481E+01      177
 Si  1.066636290721E+01  3.214538749069E+00  1.848006511260E+01  0.000000000000E+00  1.223077255343E+01  8.735087280304E-01  7.331824022098E+01 -2.827402820328E-01  4.231797632476E+01  3.457120731840E+00      178
 Si  8.053258162677E+00  4.041873090182E+00  2.016393565420E+01  0.000000000000E+00  1.326823695339E+00  9.678163853359E-01  6.327120970955E+01  2.965343369632E+00  2.526983793214E+01  7.457356201870E-01      179
 O   1.078629903456E+01  1.606873553873E+00  1.851346152406E+01  0.000000000000E+00  6.459439515390E+00  1.612530735042E+00  8.447792181680E+00 -3.618900520985E+01  4.921846329764E+00  4.348761968699E+00      180
 O   1.185326884660E+01  9.721720083034E-01  2.098005317570E+01  0.000000000000E+00 -2.940328682815E+00 -4.111244025043E+00 -7.409751253533E-01 -3.372018056763E+00 -4.186346572099E-01 -1.617617258614E+00      182
 O   1.062252755640E+01  3.532101585652E+00  1.694534796613E+01  0.000000000000E+00 -8.725152121756E+00  3.569370287628E+00 -3.979355980362E+01  1.818535228977E+01 -2.494538243923E+01 -2.768057881239E+00      184
 O   1.189497908522E+01  3.891291107949E+00  1.937616178435E+01  0.000000000000E+00 -2.788015256945E+01 -6.269521689416E+00 -7.178150363173E+00 -3.206332524305E+01 -4.406649231710E+00 -9.094246777686E+00      185
 O   9.247509128783E+00  3.296966702578E+00  1.934522869641E+01  0.000000000000E+00 -6.137257958724E+00  4.702278794668E+00 -3.141773438953E+00  2.057855038531E+01 -1.501847252014E+00 -1.514179753630E+00      187
 O   6.589924181379E+00  3.899610876485E+00  1.962405295432E+01  0.000000000000E+00 -1.922194421951E+00  2.253868138244E-01 -1.721017526746E+01 -8.265091185999E+00 -5.779323487602E+00 -1.083084043829E+00      188
 Ca  1.245953412302E+01  3.099814987156E+00  2.172082484763E+01  0.000000000000E+00  1.088629959368E+01  4.458047218160E-01 -6.664379404808E+00  6.655090427125E+00 -3.822831922151E+00  2.626060371582E+00      190
 O   1.370755222460E+01  1.770484671693E+01  7.246679408133E+00  0.000000000000E+00 -8.263216577041E+00 -3.401006084878E+01 -3.568895066408E-01 -1.392048242849E+01 -6.750790638262E-01 -1.067287437525E+01      193
 O   4.603788747277E+00  1.175391018457E+01  1.293425229002E+01  0.000000000000E+00 -2.108073987519E+00  6.053814238797E+00 -3.584409303855E+00  6.661745704362E+00 -1.275826607423E+00 -5.382113227149E+00      194
 Si  1.891105927577E+01  1.594988495131E+00  1.985654073585E+01  0.000000000000E+00 -3.834192455678E+01  5.831245105948E+00  1.264308831079E+01  3.199368375393E+01  1.204107984642E+01 -5.878312956406E+00      196
 Si  1.627752496505E+01  3.661312723661E+00  1.967396303423E+01  0.000000000000E+00 -1.658639519880E+01  3.679482657062E+00  3.636370444932E-01  1.977159867070E+01  3.008601296879E-01 -3.730787076748E+00      197
 O   2.040969040157E+01  2.084776682472E+00  2.027187537278E+01  0.000000000000E+00 -4.528932658358E+01 -8.737501270788E-01 -6.126479837569E+00 -1.416515896592E+01 -6.168129708616E+00 -3.882948279096E+00      202
 O   1.756336701051E+01  2.731034597072E+00  1.988275928276E+01  0.000000000000E+00  3.504532662665E+01 -2.521067577362E+00 -9.399453645768E+00 -2.813197899297E+01 -8.302975041399E+00  4.868316996980E+00      205
 O   1.594312598782E+01  4.634417291955E+00  2.094798289901E+01  0.000000000000E+00 -3.992590759544E+00  1.533748349299E+00  4.708474569796E+00  6.932680457645E+00  3.583533729170E+00 -1.160583669091E+00      206
 Ca  1.313580163452E+01  5.438191834492E+00  1.916255272686E+01  0.000000000000E+00  2.251093047953E+01  3.139022193224E+00 -2.623670456275E+01  1.106097028555E+01 -1.798508536896E+01  9.319473734965E+00      209
 O   2.218713381770E+01  1.913510151010E+01  1.511123438149E+01  0.000000000000E+00  1.598551739874E+00  9.009459468122E+00  3.390210914183E+01  7.114885364023E+00  4.977691519055E+01  1.378657111053E+00      210
 O   1.382324982876E+01  1.681554033900E+01  3.946588256068E+00  0.000000000000E+00  1.788072616857E+00  2.833088704063E+00  1.200885016464E+00  8.805133472662E-01  1.306655307603E+00  2.175133025178E+00      212
 Si  1.433019403311E+01  3.548982623579E+00  1.490819843883E+01  0.000000000000E+00 -8.871063790150E+00  2.618482603385E+00 -2.446817206558E+00  1.302190686789E+01 -2.351951879189E+00 -2.271218910757E+00      213
 Si  1.127260190807E+01  4.509449904945E+00  1.581801535944E+01  0.000000000000E+00  4.546293243343E+01  1.605948904072E+00 -2.985190826966E+00  5.705496513715E+00 -2.127376099173E+00  1.818929757968E+01      214
 Si  1.029714135452E+01  6.406061291873E+00  1.340245547857E+01  0.000000000000E+00 -1.630368357482E+01 -2.329407218673E+00 -2.996494511448E+01 -4.873474529403E+00 -2.302214515971E+01 -1.014285350349E+01      215
 O   1.264047043522E+01  3.611315706418E+00  1.516504203578E+01  0.000000000000E+00 -2.353737871692E+01  2.399221270662E+00  2.482996581326E+00  9.050773307314E+00  2.069644436393E+00 -7.011640590341E+00      216
 O   1.485854328833E+01  3.902625337997E+00  1.644170797947E+01  0.000000000000E+00  9.306683250139E+00 -3.563094459605E-02 -1.782848809701E+01 -4.513719077742E+00 -1.611179096999E+01  2.575231755819E+00      217
 O   1.466104593437E+01  4.775614559985E+00  1.380244819099E+01  0.000000000000E+00  3.873100128750E+00 -3.809442492082E+00  1.685972884872E+01 -1.101002435877E+01  1.790850837995E+01  1.261603943534E+00      218
 O   1.483439862141E+01  2.077092418256E+00  1.436028378744E+01  0.000000000000E+00 -1.161465042480E+01  1.045294315870E+01  2.014822791580E+01  2.297670947229E+01  2.081343578177E+01 -1.403036495485E+00      219
 O   1.192840453352E+01  5.807811068512E+00  1.676721703534E+01  0.000000000000E+00 -3.486988155598E+00 -6.254614549786E+00  1.336096232178E+00 -1.805714380023E+01  9.505153013486E-01 -1.697776793949E+00      220
 O   1.059576917918E+01  5.300094305406E+00  1.458976822847E+01  0.000000000000E+00 -7.066450871282E+00 -2.209791327481E+00  2.503026353310E+00 -6.082975404484E+00  1.817814311630E+00 -3.534699122731E+00      222
 O   1.146688889834E+01  6.820011362118E+00  1.242362619381E+01  0.000000000000E+00  4.763802536599E+00 -2.202786121941E+00  8.428043363622E+00 -4.012689995787E+00  7.779003921509E+00  2.833304457253E+00      223
 O   2.129090769196E+01  2.145395663655E+01  1.276271660193E+01  0.000000000000E+00  1.241458095636E+01  2.208408824741E+01 -1.932077621424E+01  1.313757478346E+01 -3.223113665725E+01  1.250965366776E+01      224
 Ca  1.581782899179E+01  7.341286413201E+00  5.965747954691E+00  0.000000000000E+00 -3.094925535151E+00  4.543640204626E-01  7.993142375437E+00  3.692297334817E-01  2.119334577356E+01 -1.436400329835E+00      225
 Ca  1.682336733249E+01  5.131938553522E+00  1.562637726340E+01  0.000000000000E+00 -5.554763312491E+00 -7.153206841228E+00  8.723880720651E+00 -2.178099125280E+01  9.392135326985E+00 -1.694470758182E+00      226
 Si  2.202346462647E+01  2.277340855669E+00  2.022180888207E+01  0.000000000000E+00 -4.194117976770E+01  1.378844649267E+01 -4.417982207129E+01  9.120034107331E+01 -4.811600951552E+01 -5.117222956095E+00      228
 Si  2.290962042236E+01  4.965510523958E+00  2.137701498840E+01  0.000000000000E+00  5.356604007080E+01  9.996780260361E+00 -4.224298937749E+01  4.310826599516E+01 -4.527156165954E+01  1.161270250632E+01      229
 O   2.259962643776E+01  9.547992226760E-01  2.071682619892E+01  0.000000000000E+00  4.416480830967E+01  9.046916832757E+01 -5.364817605943E+00 -6.588084067945E+01 -5.852386491873E+00 -9.120503281202E+01      230
 O   2.225518332082E+01  3.539456526639E+00  2.132826934481E+01  0.000000000000E+00 -4.385897523402E+01 -6.846213856054E+00  2.066545617417E+01 -4.375998855996E+01  2.156356468166E+01 -7.555953013465E+00      236
 O   2.310141855502E+01  5.310722660630E+00  2.302579030350E+01  0.000000000000E+00 -1.522558222234E+00  2.265423524199E+00 -2.100411982779E+01  9.822235192876E+00 -2.107310789883E+01 -3.500167937171E-01      237
 H   1.324445800119E+01  1.616416648366E+01  4.420592613886E+00  0.000000000000E+00  5.711987014547E+00  8.152591754717E+00 -1.390688321109E+00  2.234800426263E+00 -4.826565305572E+00  6.971180628706E+00      243
 H   1.824697997163E+01  1.941467379731E+01  8.018032496208E+00  0.000000000000E+00  8.122717958970E+00 -2.698900464000E+01  3.820332775604E-02 -1.114614226863E+01  8.694094925954E-02  8.642521653780E+00      247
 H   1.421679320422E+01  8.964817428733E+00  8.595750889723E+00  0.000000000000E+00 -3.582589829956E+01  1.462840378087E+01  1.825488550793E+01  1.402617686465E+01  3.019235149581E+01 -2.259107471442E+01      248
 H   6.038088816178E+00  1.090699181868E+01  9.884906880070E+00  0.000000000000E+00  2.261610702486E+00  2.471604214663E-01  1.786884402387E-01  2.239992283161E-01  1.091499075991E-01  4.085294234652E+00      249