     8448
Lattice="     49.70      0.00      0.00      0.00     49.70      0.00      0.00      0.00     49.70" pbc="T T T" config_type=md Properties=species:S:1:pos:R:3:charge:R:1:forces:R:3:id:I:1
 Si  1.060572400001E+01  1.776229022051E+01  1.581841027754E+01  0.000000000000E+00 -8.033835854151E+00 -2.594830635416E+01 -3.091325616562E+00 -2.310856037266E+01 -2.072632186685E+00 -1.345493471499E+01        1
 Si  1.226529514846E+01  2.030427901800E+01  1.706159024193E+01  0.000000000000E+00  2.598491872591E+01 -7.415675138233E+01 -4.977331228937E+01 -6.231356969811E+01 -3.578121131084E+01  4.301609000719E+01        2
 Si  1.092653943201E+01  2.257977855125E+01  1.776892997697E+01  0.000000000000E+00 -7.407118680689E+00  2.164177424529E+01  6.249548617297E+01  1.703077690816E+01  3.842996707606E+01 -1.530686824987E+01        3
 O   1.098039424603E+01  1.929382364594E+01  1.661636335450E+01  0.000000000000E+00  1.758243016444E+01 -5.603322531940E+00 -9.637002194962E+00 -4.825733089083E+00 -6.368305819569E+00  3.089436492523E+01        4
 O   8.978871210251E+00  1.806087245886E+01  1.569910624538E+01  0.000000000000E+00  5.746795344480E+00 -4.501765591567E+01 -2.188013825333E+01 -3.913083184369E+01 -1.251402088555E+01  1.155959756337E+01        5
 O   1.131674623261E+01  1.703078997298E+01  1.450616775373E+01  0.000000000000E+00 -2.281794151946E+00  3.448085052821E+01  8.313065833007E+00  2.936945396232E+01  6.485300462831E+00 -3.433916089004E+00        6
 O   1.078545852977E+01  1.671408732980E+01  1.701534755311E+01  0.000000000000E+00 -5.397589312371E+00 -3.190523077877E+01  5.596127180077E+01 -3.248030118252E+01  3.547197460388E+01 -8.364575218422E+00        7
 O   1.278467973697E+01  2.107925990472E+01  1.569668619886E+01  0.000000000000E+00 -5.512658184086E+00  3.199090537763E+01 -1.602371039395E+01  2.382205092587E+01 -1.305103529428E+01 -9.089219051158E+00        8
 O   1.372147938159E+01  1.975774598693E+01  1.762713059439E+01  0.000000000000E+00 -6.587861034844E+00 -1.173168926848E+00 -1.642183996889E+00 -1.046657948559E+00 -1.278324553928E+00 -9.485951281481E+00        9
 O   1.175437783520E+01  2.120682215250E+01  1.820692949971E+01  0.000000000000E+00 -1.126789571460E+01  5.150894023885E+01  4.004801427403E+01  4.422254483908E+01  2.585496315202E+01 -2.032912875549E+01       11
 O   1.906376767815E+01  1.782248813663E+01  2.061613063211E+01  0.000000000000E+00  6.948001512799E+01 -3.344494235698E+01  3.132234253302E+01 -3.868737604586E+01  2.896381827611E+01  6.495603420362E+01       13
 Ca  2.269178168826E+00  1.667747952782E+01  1.762117503499E+01  0.000000000000E+00 -6.739301927721E+00 -1.200661887164E+01  3.905854243110E+00 -1.268601363670E+01  3.059331293381E+00  9.429738753404E+00       14
 Ca  2.111237118730E+01  1.383036910541E+01  1.893707365068E+01  0.000000000000E+00  4.382890768873E+00  6.929887284071E+00 -1.579917102740E+01  9.488668370968E+00 -1.761401837132E+01  2.871160067452E+00       15
 O   6.471711845514E+00  3.941029710433E+00  1.577718959862E+01  0.000000000000E+00  2.689295745305E+01  1.145030415807E+01  5.517852712416E+01  4.895305300052E+01  2.263391241991E+01  1.619139014865E+01       16
 O   9.463777726461E+00  1.596635202660E+01  1.963468660365E+01  0.000000000000E+00  1.631917401021E+01 -1.343238554362E+01  2.035791770218E+01 -1.651853097370E+01  9.812369914333E+00  2.753210024173E+01       18
 Si  2.038023270560E+01  1.970719477159E+01  1.802276692499E+01  0.000000000000E+00  1.003253570610E+01  8.014749611625E+00  2.896231776799E+01  7.329707037794E+00  3.275073013271E+01  9.701220691106E+00       19
 Si  1.799323174975E+01  2.146783638773E+01  1.839253740539E+01  0.000000000000E+00  4.183719973603E+01  1.075068110792E+01  1.902955825227E+01  9.210630304782E+00  1.861642274698E+01  4.991622246328E+01       20
 O   1.903373536408E+01  2.007373714441E+01  1.882960440050E+01  0.000000000000E+00 -6.054096178677E+01  2.756261997030E+01 -2.375303194119E-01  2.585434025307E+01 -2.401053757938E-01 -6.384891510422E+01       22
 O   2.120327986268E+01  2.104753452990E+01  1.812436183276E+01  0.000000000000E+00  3.003235965602E+01  2.236367758108E+01 -7.060895935638E+00  1.925771324023E+01 -8.260382019851E+00  2.981176171650E+01       23
 O   2.008910109550E+01  1.951032970705E+01  1.648506656961E+01  0.000000000000E+00  1.049945859539E+00 -3.031426390747E+01 -2.024931235897E+01 -2.561374748796E+01 -2.467630211719E+01  1.019696690100E+00       24
 O   2.123277761701E+01  1.853396917635E+01  1.906176474666E+01  0.000000000000E+00 -2.529848389015E+00  5.435183463398E+01 -3.948411999692E+01  5.589962276749E+01 -4.398110827829E+01 -2.208290074365E+00       25
 O   1.834877699356E+01  2.247108550789E+01  1.988661926719E+01  0.000000000000E+00 -2.585416969476E+01 -3.873423025097E+01 -6.309549786236E+01 -3.427929146272E+01 -5.821629126697E+01 -3.166266929672E+01       26
 O   2.167007283532E+01  1.704983115947E+01  2.119075730518E+01  0.000000000000E+00 -3.140327191795E+01  1.653770355653E+01 -2.862046049046E+01  2.055424826051E+01 -2.926782910477E+01 -2.470783038547E+01       27
 O   1.853934943182E+01  2.209182511322E+01  1.677710450647E+01  0.000000000000E+00  3.960548556822E+00 -1.376458053790E+01  3.349698269402E+01 -1.045317917322E+01  3.701546156767E+01  4.719461510315E+00       29
 Ca  4.664507413438E+00  1.046431927288E+01  1.452245298993E+01  0.000000000000E+00 -1.577238237578E+00 -7.478364804381E-01  6.581201501331E+00 -1.037852520370E+00  2.113834571444E+00 -3.538363866645E+00       32
 Si  1.339451624081E+01  1.986338619938E+01  1.224499178393E+01  0.000000000000E+00  6.685881271203E+00  2.716083773252E+01  1.124411508407E+01  1.674358196237E+01  1.229968012756E+01  9.914821811071E+00       37
 Si  1.236296027151E+01  2.212692673435E+01  1.438113788494E+01  0.000000000000E+00 -1.191140462278E+01 -1.188130194135E+02  6.704678191537E+00 -7.722113582357E+01  5.763776884585E+00 -2.131874337562E+01       38
 O   1.301339453587E+01  2.170960691907E+01  1.293359409227E+01  0.000000000000E+00  1.659131601698E+00 -5.545991591555E+01  5.483247164048E+00 -3.304048956378E+01  5.517078870295E+00  2.767847758753E+00       40
 O   1.411337900150E+01  1.882185580400E+01  1.333896561236E+01  0.000000000000E+00 -4.746921460712E+01  3.137264661888E+00  2.028791352244E+01  2.223365531941E+00  2.146575836635E+01 -6.330579745427E+01       41
 O   1.448522138439E+01  2.056797660332E+01  1.133804186015E+01  0.000000000000E+00  1.977544928779E+01 -2.875791448887E+01 -3.071967346440E-01 -1.585272312264E+01 -3.924674793730E-01  2.807972121917E+01       42
 O   1.222029619002E+01  1.916296446107E+01  1.149934359369E+01  0.000000000000E+00 -1.562397888855E+01  9.402604308339E-01 -3.900828436714E+00  5.642330435707E-01 -4.145391299490E+00 -2.450036787376E+01       43
 O   1.263490726436E+01  2.362911463374E+01  1.438743811310E+01  0.000000000000E+00 -1.250841498802E+01  6.583268474786E+01  1.365221964788E+01  4.008460292781E+01  1.198924560770E+01 -2.339255567568E+01       44
 O   1.068587979942E+01  2.194215623756E+01  1.411551174352E+01  0.000000000000E+00  8.407074332513E-01  3.390098471045E+01  1.879163806163E+00  2.180869293867E+01  1.422585232541E+00  1.726290600001E+00       46
 O   8.156735760102E+00  2.157911105974E+01  1.478438246750E+01  0.000000000000E+00 -2.727896462281E+00  3.256896856883E+00 -1.831089892798E+00  2.231380553909E+00 -1.010236067781E+00 -7.216806140391E+00       47
 O   1.777699645162E+01  1.607136980860E+01  9.786313971009E+00  0.000000000000E+00 -7.815568528596E+00 -9.467235928909E+00  4.107098075236E+00 -5.764869102092E+00  7.460609594807E+00 -7.065698214511E+00       48
 Ca  6.690140854698E+00  2.152721355096E+01  1.318103284850E+01  0.000000000000E+00  1.733809233266E+00 -1.600340545680E+01 -9.972713867910E+00 -9.798825682409E+00 -5.061732357910E+00  5.578967981657E+00       49
 Si  2.050047687083E+01  2.078912957308E+01  2.297032176895E+01  0.000000000000E+00  1.504156338311E+01  1.291435729268E+01  1.912974052927E+01  1.426932962293E+01  1.707284761659E+01  1.525335298898E+01       51
 Si  1.931863215328E+01  2.275796362419E+01  2.107828738670E+01  0.000000000000E+00  6.285419383748E+01  2.964010256390E+01 -6.091383488657E+01  2.745248258279E+01 -5.582863292593E+01  7.404424110527E+01       52
 O   1.923971621108E+01  2.188262423019E+01  2.237952679764E+01  0.000000000000E+00  8.906843271494E-01 -6.227388126201E+01  1.382887625387E+01 -6.368797361030E+01  1.188870779299E+01  1.013035235286E+00       54
 O   1.988088138412E+01  1.925850523217E+01  2.310715352836E+01  0.000000000000E+00 -1.223425509564E+01 -1.310732349776E+00  9.017108653693E+00 -1.572671049790E+00  7.758119897882E+00 -1.185125856439E+01       55
 O   2.203896149740E+01  2.041585413498E+01  2.247399413762E+01  0.000000000000E+00 -2.084997134271E+01  1.805127519349E+01  1.724360663593E+00  1.987103993753E+01  1.690981942944E+00 -1.931442975213E+01       56
 O   2.051155799782E+01  2.166686315192E+01  2.437773761048E+01  0.000000000000E+00  2.278962235487E+01 -2.644679861164E+01 -7.427324518837E+00 -2.975572018300E+01 -6.249390327805E+00  2.407323855649E+01       57
 O   1.643250097057E+01  2.144516303629E+01  1.842245789909E+01  0.000000000000E+00 -5.389181578816E+00 -5.652898145038E+00 -7.012533798046E+00 -4.856119671768E+00 -6.255053971287E+00 -7.033127689866E+00       58
 O   1.433480706855E+01  1.239708143092E+01  1.166019273776E+01  0.000000000000E+00 -1.712219009494E+01 -5.665410268546E+00 -7.347536831015E+01 -5.328655461192E+00 -9.032914401198E+01 -1.480767643874E+01       59
 H   3.652097602780E+00  7.412886941228E+00  1.456862341952E+01  0.000000000000E+00  5.561876651577E-01 -1.628534165923E+01  2.757171677600E+01 -3.200575049542E+01  6.868776396756E+00  1.332475532996E+00       70
 H   1.448085241843E+01  1.920100742900E+01  1.789477515395E+01  0.000000000000E+00 -9.117753019419E+00  4.837648533715E+00 -4.783081582613E+00  4.508546392932E+00 -3.870576629617E+00 -1.208976090653E+01       73
 H   1.657163491592E+01  1.310122727882E+01  1.524892400251E+01  0.000000000000E+00 -1.529454498355E+01  1.576642786499E+01 -5.292178328205E+01  1.835103347095E+01 -5.751228555571E+01 -1.209158365921E+01       83
 Si  2.000959739641E+00  2.057455410598E+01  2.128686626522E+01  0.000000000000E+00  6.807662066670E+00 -7.072791692452E+01 -2.271497756041E+01 -7.317658992923E+01 -2.150479115750E-01  4.093654756483E+01       89
 Si  2.513158010957E+00  2.082308362922E+01  1.819754760328E+01  0.000000000000E+00  1.354418447321E+00 -4.719889633608E+01  4.826643928026E-01 -4.124769309830E+01 -1.938511969421E+00  3.150771247648E-01       90
 O   1.630792904483E+00  2.054406295357E+01  1.955358429128E+01  0.000000000000E+00  3.759494153524E+00  4.964524073950E+00  3.775876244774E+01  4.725172433780E+00  2.873122262194E+00  3.361869583011E+00       92
 O   1.657538809981E+00  1.913677497386E+01  2.215830679396E+01  0.000000000000E+00  5.552650074579E+00  2.559845103410E+01 -2.515419682237E+01  2.964022580809E+01 -4.035297859276E+00  1.574813028666E+01       95
 O   1.614824349643E+00  1.969273583371E+01  1.716681368563E+01  0.000000000000E+00  5.803438451676E+00  2.922474649449E+00 -6.329594101333E+00  2.547618483876E+00  4.007616655132E+00  1.183117502111E+01       96
 O   4.066176992992E+00  2.032721855371E+01  1.840305982486E+01  0.000000000000E+00 -5.353561608120E+00  7.871669131863E+00  4.785237650809E+00  7.126543042396E+00  1.057303699868E+00 -2.676298081381E+01       97
 O   1.161521663617E+01  1.508905167427E+01  2.076907726451E+01  0.000000000000E+00 -1.429244633148E+01  1.061156162438E+01 -3.190305091765E+01  1.460610965033E+01 -1.784195046529E+01 -1.856697709588E+01       98
 O   3.588070373925E+00  1.227909148117E+01  2.014645357948E+01  0.000000000000E+00  3.858733477353E+00 -1.560157859809E+00  4.991971827780E+00 -2.559769828859E+00  9.047139584860E-01  1.294450032656E+01      101
 Ca  2.149197494656E+01  2.344973985458E+01  1.842776525612E+01  0.000000000000E+00  1.342760280389E+01  4.660072424337E+00  8.701063646455E+00  3.662075624068E+00  1.014789581368E+01  1.465076119829E+01      102
 O   1.654530663127E+01  3.801574492700E+00  1.098545962208E+01  0.000000000000E+00 -4.032528754173E+01 -9.326548624964E+00 -2.098074900828E+01 -2.695104976364E+01 -3.159930832553E+01 -9.265442336359E+00      105
 Si  5.240873913259E+00  1.602686995855E+01  1.951157030195E+01  0.000000000000E+00  1.157805068684E+01 -8.781751914887E+00  2.919652530580E+00 -1.069115618363E+01  7.842285652306E-01  3.540629211896E+01      107
 Si  8.255760624452E+00  1.676795526828E+01  2.032375060935E+01  0.000000000000E+00 -1.514878370761E+01 -5.609649061070E+01 -1.348784691816E+01 -6.799225469002E+01 -5.478931405718E+00 -3.076810715971E+01      108
 Si  7.747799631217E+00  1.956441462687E+01  1.959769228892E+01  0.000000000000E+00 -6.263509908685E+00  3.214102388566E+01 -1.066558985637E+01  3.219569345544E+01 -4.216560395872E+00 -1.581634924828E+01      109
 O   6.940437490555E+00  1.643862828662E+01  1.930974115217E+01  0.000000000000E+00 -4.948953883414E+00  3.261502576178E-01  1.883288404338E+01  3.831145118380E-01  6.769042290104E+00 -1.172174137549E+01      110
 O   4.606876203648E+00  1.663623663172E+01  1.817179460275E+01  0.000000000000E+00 -4.805010244094E+00 -3.926070062133E+00  1.998579227983E+00 -4.288454194566E+00  5.066757184846E-01 -1.735173334488E+01      111
 O   4.714903699513E+00  1.657190543014E+01  2.092071927012E+01  0.000000000000E+00  1.201145386935E+00  1.667608276933E+01 -1.126264149439E+01  2.105223491729E+01 -2.538262158321E+00  4.221776101640E+00      112
 O   5.349297224129E+00  1.433583055844E+01  1.959623067771E+01  0.000000000000E+00  4.056396670145E-01 -1.724435599574E+01  4.826735812745E+00 -2.357201255997E+01  1.317582187583E+00  1.087092619919E+00      113
 O   7.896022429662E+00  1.639714366898E+01  2.191986689396E+01  0.000000000000E+00  5.089295331047E+00  2.955357244903E-01 -3.546331285680E+00  3.950751346706E-01 -1.277467217762E+00  1.056860051506E+01      114
 O   1.187739256420E+01  1.365107281389E+01  3.509090342881E+01  0.000000000000E+00 -1.924826434239E+01  1.150391290588E+01 -3.574205437396E+01  2.957149978887E+01 -1.209779086229E+01 -2.212265500687E+01      115
 O   8.481427815623E+00  1.830915048634E+01  2.024405910594E+01  0.000000000000E+00  1.042584328522E+01  2.108691962329E+01  8.447155381124E-01  2.331538252059E+01  3.539010543164E-01  2.250662716301E+01      117
 O   6.326303721916E+00  1.981484153932E+01  2.024090493247E+01  0.000000000000E+00 -9.634942480845E+00  4.695687313456E+00  1.488801999861E+01  4.796655088848E+00  4.653257186049E+00 -3.017794701146E+01      118
 O   6.408054515711E+00  9.551201571418E+00  2.210564186162E+01  0.000000000000E+00 -2.598609876614E+00  1.612976271579E+01 -2.092514964046E+01  3.733129860594E+01 -6.065849636253E+00 -3.873226527047E+00      119
 Ca  2.352654380191E+01  1.847007306544E+01  2.051854377315E+01  0.000000000000E+00 -9.715992530931E+00  1.306073423468E+01 -1.624058872367E+01  1.450926837996E+01 -1.862144439686E+01 -7.627771144820E+00      120
 Ca  3.285820153549E+00  1.218996769917E+01  1.793156978888E+01  0.000000000000E+00 -1.862183063143E+00 -5.778072451798E-01  2.096389198709E+00 -8.499604918698E-01  1.657758721618E+00  5.435553741556E+00      121
 Si  9.739758486387E-01  1.708912412371E+01  1.390971905500E+01  0.000000000000E+00 -1.844227764106E+02  9.046178234812E+00 -1.693629301395E+00  7.363150788585E+00 -1.594667577043E+02  7.457631569965E+00      125
 Si  2.071122440777E+00  1.918325025508E+01  1.562359263501E+01  0.000000000000E+00 -8.436697070706E+00  7.300093469763E+01 -1.795002232416E+01  5.945482911002E+01 -5.342145026267E+00 -3.635345859128E+01      126
 Si  3.595972550876E+00  2.076492082160E+01  1.328750787992E+01  0.000000000000E+00 -1.329605261744E+01 -1.187224119910E+01 -4.094926666999E+00 -7.597067180783E+00  2.691748107999E-01 -8.618013448768E+01      127
 O   7.147366929849E-01  1.832104782944E+01  1.503526676935E+01  0.000000000000E+00  1.663271280535E+01  3.552918250109E+01 -1.097441286912E+01  2.915721535000E+01  1.619784737390E+01  1.138964157723E+01      128
 O   2.412022169255E+00  1.692556346382E+01  1.310719994674E+01  0.000000000000E+00  1.496417632193E+01  4.856770000635E+00 -2.443448036947E+00  3.761095199562E+00  4.441049356111E+00 -1.151569963746E+01      129
 O   1.066907211723E+00  1.600473536126E+01  1.509667891591E+01  0.000000000000E+00  4.518236193733E+00 -4.440135424668E+01  2.925154442711E+01 -4.188216633162E+01  6.449881064822E+00 -2.777981142279E-01      131
 O   3.270955620757E+00  1.824930411131E+01  1.566381523611E+01  0.000000000000E+00  8.931537684630E+00 -4.496185674346E+01  1.588645173733E+01 -3.859183957954E+01  3.113520397129E+00  5.126515311373E+01      132
 O   2.735431594179E+00  4.466901653002E+00  9.145703072741E+00  0.000000000000E+00 -3.946536053348E+00 -1.277550226781E+01 -5.144563174181E+01 -2.615704562647E+01 -1.673920354411E+01 -1.091791797491E+01      133
 O   2.593813004889E+00  2.058549357249E+01  1.463065202371E+01  0.000000000000E+00  5.333129527295E+00 -3.076455459986E+01  9.791134060182E+00 -2.186517857490E+01  1.291431435106E+00 -1.279353984125E+01      134
 O   2.315447814684E+00  2.042080392712E+01  1.191765834650E+01  0.000000000000E+00  7.325243724291E+00  2.311846534676E+01  9.737753583097E+00  1.349202374605E+01  2.121130096354E+00  2.391900603742E+01      135
 O   8.110727943800E+00  1.489387519293E+01  1.280956754848E+01  0.000000000000E+00  5.296697874988E+00  1.712809993132E+00 -1.569682537831E+01  1.473112606393E+00 -9.938874184699E+00  9.726421306613E+00      136
 Si  8.919258033757E+00  1.462078147946E+01  2.552485402255E+01  0.000000000000E+00 -1.671673697417E+01 -2.398967017850E+01 -1.012377499816E+01 -4.188099180714E+01 -3.537593649097E+00 -2.740270069819E+01      139
 Si  8.772561388861E+00  1.678641645268E+01  2.328340505942E+01  0.000000000000E+00  9.260940540544E+00  5.978027491990E+00 -3.728925664225E+01  8.291753987202E+00 -1.404958992056E+01  1.772093665306E+01      140
 O   8.428668085412E+00  1.575778082396E+01  2.446544986960E+01  0.000000000000E+00  3.463669255341E+00 -9.689819984427E+00  1.758966348340E+01 -1.504436492187E+01  6.059869572228E+00  6.475488228895E+00      142
 O   7.671652349951E+00  1.351611339869E+01  2.549163465334E+01  0.000000000000E+00 -7.931651118297E+00 -1.208315474584E+01  8.663978766441E+00 -2.278904868250E+01  2.607405682977E+00 -1.397418588114E+01      143
 O   8.265170149438E+00  1.821634152551E+01  2.384089897763E+01  0.000000000000E+00 -1.526231192438E+01  4.090782798755E+01  3.145129569453E+01  5.353870825709E+01  1.090354481093E+01 -3.363796285576E+01      148
 O   1.296060508151E+01  1.619216624876E+01  1.809399274660E+00  0.000000000000E+00 -1.698984595447E+01 -5.143715729584E+00  1.962141614913E+01  5.677503186469E-01 -1.595110974429E+01 -2.122604681691E+01      150
 Ca  4.000351761843E+00  1.153292855260E+01  7.050979915739E+00  0.000000000000E+00 -1.988059147592E+00  9.264678736720E+00  5.980299463615E+00  5.664221658917E+00  4.256529990019E+00 -9.522627142160E-02      151
 Ca  1.307642763729E+01  2.171312557512E+01  1.701990229054E+00  0.000000000000E+00 -1.363224082587E+00  1.969143427304E+01 -3.380376128036E+01 -8.378663836119E+00 -2.904659328211E+00 -2.263604136640E+00      152
 H   7.208009271500E+00  1.743579371879E+01  1.576532160584E+01  0.000000000000E+00 -1.791376000725E+01 -1.626390148116E+01 -5.018069586279E+00 -1.470570491665E+01 -2.294294592096E+00 -4.333243929767E+01      155
 H   1.087113069547E+01  1.378757654129E+01  3.500732773755E+01  0.000000000000E+00  2.304877861814E+01 -9.800962068512E+00  3.254840396440E+01 -2.488511960374E+01  1.010753965795E+01  2.923217540869E+01      156
 H   1.447893454959E+01  1.208519787161E+01  1.247233671449E+01  0.000000000000E+00  1.520378847502E+01 -1.822873864116E+01  7.666955707296E+01 -1.881268048966E+01  8.900445235061E+01  1.269021498022E+01      159
 H   1.588401376202E+01  2.909900608175E+00  1.078642646325E+01  0.000000000000E+00  3.883407343720E+01  8.062284267398E+00  1.107603081064E+01  2.887652791287E+01  1.631048303386E+01  7.239015805475E+00      160
 H   1.689639166199E+01  1.716862585518E+01  1.504906833810E+01  0.000000000000E+00 -1.347701772243E+00 -2.272334007563E+01 -8.117451037247E+00 -1.991802375756E+01 -9.113895222009E+00 -1.369415905768E+00      164
 H   1.789179384177E+01  5.653645768949E+00  5.758168824577E+00  0.000000000000E+00  6.170751512365E+01  8.795317773818E+00 -2.926612632634E+00  8.957923201626E+00 -9.093576703468E+00  1.949901920827E+01      168
 H   5.437486643388E+00  2.070375773010E+01  3.326232729978E+01  0.000000000000E+00 -2.031039475095E+01  1.302359743747E+00  1.575302876082E+01  2.092350414030E+00  2.575192129759E+00 -7.733379774599E+01      169
 Si  1.218887483899E+01  7.429581035018E-01  1.988938244644E+01  0.000000000000E+00  7.371895263773E+00 -2.080756505214E+02  1.492211907151E+01 -9.082744356448E+01  9.144770692849E+00 -8.918787915072E+01      177
 Si  1.122640778486E+01  3.252165552564E+00  1.881113453573E+01  0.000000000000E+00  1.707545303839E+01  4.128828422409E+00 -2.286188385815E+01  2.061229921959E+01 -1.364387833357E+01  4.795729893172E+00      178
 Si  8.214217362741E+00  3.980749985575E+00  1.967749440257E+01  0.000000000000E+00 -8.070738468617E+00 -1.664553721744E+00  2.942794325396E+01 -8.228159683749E+00  1.228446658305E+01 -3.911217663688E+00      179
 O   1.194567039508E+01  1.784518815138E+00  1.877015776432E+01  0.000000000000E+00 -1.974735498838E+01  6.451268235249E+00 -4.914093088811E+01  1.895447608612E+01 -3.127418376913E+01 -3.080255548615E+00      180
 O   1.219768540449E+01  1.032669880537E+00  2.143690072129E+01  0.000000000000E+00 -4.390096905434E+01  5.291763740677E+00  5.437674680358E+01  3.312062337021E+01  3.094059441955E+01 -5.615420958042E+00      182
 O   1.182109612062E+01  3.648746162410E+00  1.711106828746E+01  0.000000000000E+00 -1.102029452406E+01 -2.494607160335E+00  3.763164423443E+01 -1.248856608100E+01  2.599763359007E+01 -3.520971714651E+00      184
 O   1.207532344378E+01  3.890278058292E+00  2.001538328980E+01  0.000000000000E+00 -7.934491414581E-01  5.124456130698E+00 -3.667925046931E+00  2.432673922297E+01 -2.212867006739E+00 -2.342557688303E-01      185
 O   9.654787053764E+00  3.321165502954E+00  1.904448802837E+01  0.000000000000E+00 -1.691980248309E+01 -7.739719641596E-01 -4.486523549064E+00 -4.316689453340E+00 -2.274486424281E+00 -5.895554625907E+00      187
 O   6.762095980675E+00  3.924828784432E+00  1.894431193693E+01  0.000000000000E+00  8.523826808839E+00 -1.515727830782E+00  1.363095922474E-01 -4.337916345402E+00  4.865516092285E-02  4.782075864687E+00      188
 Ca  1.129791028785E+01  4.028001632217E+00  2.254339024835E+01  0.000000000000E+00  1.380533259167E+01 -1.436844975607E+00 -2.375856236896E+01 -8.041545155400E+00 -1.190690944244E+01  4.921963513231E+00      190
 O   1.551443487830E+01  1.897628056330E+01  7.730018439064E+00  0.000000000000E+00  3.499224314504E+00  1.573966687800E+01  1.090457546963E+01  6.411578643445E+00  2.188588906129E+01  4.280031007693E+00      193
 O   4.012809251892E+00  1.224220080777E+01  1.265765214933E+01  0.000000000000E+00  1.037043107274E+01 -2.258040455401E+01 -7.224567770038E+00 -2.334669319053E+01 -2.341326056754E+00  3.070894493458E+01      194
 Si  1.813779024739E+01  1.874115000517E+00  2.007016346586E+01  0.000000000000E+00  9.292795461423E+01  7.591894145939E+00 -7.663798807469E+01  5.677040143739E+01 -6.925921430812E+01  8.259299377693E+00      196
 Si  1.678377378333E+01  4.166105898065E+00  1.942901421984E+01  0.000000000000E+00 -3.797766269399E+01  1.249740685914E+01 -1.305503509486E+01  5.828279489731E+01 -1.127760540428E+01 -9.426900444841E+00      197
 O   1.972636874221E+01  1.546148467728E+00  2.053040474502E+01  0.000000000000E+00 -1.305925059201E+00  7.722865119037E+00  9.273520077711E+00 -6.144434119196E-01  8.910339511721E+00 -3.386602108801E+00      202
 O   1.796835857939E+01  3.540412155406E+00  2.029587600751E+01  0.000000000000E+00  1.529623044855E+01 -5.253653095207E+00  3.799957674739E+00 -3.124262564476E+01  3.364181080972E+00  2.886336132195E+00      205
 O   1.573496976008E+01  5.273484907834E+00  2.032232052875E+01  0.000000000000E+00  2.060147992776E+01 -1.306106296883E+01 -5.781531634958E+01 -5.033315022944E+01 -4.476468389242E+01  6.904467891240E+00      206
 Ca  1.406219872803E+01  5.575954295154E+00  1.825493912158E+01  0.000000000000E+00  7.664046059801E+00  5.268962612577E-01 -4.175415648758E+00  1.724988883250E+00 -3.216418539329E+00  3.038953678006E+00      209
 O   2.240497521833E+01  1.898944720277E+01  1.467134075997E+01  0.000000000000E+00 -4.360906700510E-01 -2.711011887014E+01  1.321123278142E+01 -2.094541182479E+01  2.017520742746E+01 -3.696107973277E-01      210
 O   1.436828682232E+01  1.749649528828E+01  4.429467917777E+00  0.000000000000E+00 -1.343945348663E+01 -1.451569046945E+01  7.770144105073E-01 -3.558089872573E+00  1.272128705404E+00 -1.636543991039E+01      212
 Si  1.411916651083E+01  4.022481937010E+00  1.472239632252E+01  0.000000000000E+00 -4.971840112668E-01 -1.688924362327E-01  2.527452859693E+01 -6.181510373523E-01  2.423893977076E+01 -1.416453091021E-01      213
 Si  1.162401288997E+01  4.724525660581E+00  1.597225508338E+01  0.000000000000E+00 -1.491153268505E+01  1.183531804860E+01 -4.831328373013E+00  4.001178794359E+01 -3.516061006440E+00 -6.060722701874E+00      214
 Si  9.513910548800E+00  6.155972008572E+00  1.443849354565E+01  0.000000000000E+00 -2.976193833566E+00  1.038254919139E+01 -1.764955526779E+00  2.435169771378E+01 -1.162976521844E+00 -1.925745027509E+00      215
 O   1.242149827890E+01  4.654638079463E+00  1.450897316014E+01  0.000000000000E+00  1.773497915584E+01 -4.897207159837E+00  1.823375057090E+01 -1.526508528240E+01  1.561037427216E+01  6.645728837514E+00      216
 O   1.449592351641E+01  4.392490438085E+00  1.634682574298E+01  0.000000000000E+00  4.863627750325E-01 -2.856110950664E+00 -3.537275426058E+01 -1.062912911735E+01 -3.136760300673E+01  1.473754905200E-01      217
 O   1.515166852924E+01  4.631397893183E+00  1.359762192342E+01  0.000000000000E+00 -2.290429557231E+01  1.417122704542E-01  1.754026392581E+01  4.160622602482E-01  1.954490766224E+01 -7.001136941038E+00      218
 O   1.372055144518E+01  2.427104635963E+00  1.469733672547E+01  0.000000000000E+00  1.569077407627E-01  2.955953407334E+00  1.116445133731E+01  1.014707750333E+01  1.042246168759E+01  3.982682121183E-01      219
 O   1.218480366151E+01  6.198123950773E+00  1.678616375358E+01  0.000000000000E+00 -9.640984659033E+00  9.184410117009E-01 -7.748644363635E+00  2.487381882463E+00 -5.624615105620E+00 -4.904142863863E+00      220
 O   9.982852031334E+00  5.020015342623E+00  1.556396088120E+01  0.000000000000E+00  8.686984202731E+00  7.032191835817E-01  4.679926396358E+00  2.180247492720E+00  3.001743135247E+00  4.368370265527E+00      222
 O   1.079867648406E+01  6.907907105484E+00  1.380123645825E+01  0.000000000000E+00  3.541060367260E+00 -3.057130135579E+00  1.935422247023E-01 -6.107808811046E+00  1.514356975831E-01  2.265214270291E+00      223
 O   2.137526186558E+01  2.101758434723E+01  1.297717249209E+01  0.000000000000E+00 -5.810087848474E+01  4.054743692650E+01  2.746920057331E+01  2.503575455743E+01  4.524570786514E+01 -5.712866218345E+01      224
 Ca  1.530590114986E+01  7.680282481328E+00  6.059524461174E+00  0.000000000000E+00  1.040269507835E+01  2.672827264904E+00  1.389381372553E+00  2.108784700505E+00  3.509472415535E+00  5.219923739649E+00      225
 Ca  1.701422306316E+01  4.810650320329E+00  1.556575577630E+01  0.000000000000E+00 -1.062140145802E+01  2.837461200817E+00  5.502901637030E+00  9.181134594218E+00  6.014972693430E+00 -3.003125569513E+00      226
 Si  2.132770016477E+01  2.204562886552E+00  2.045636113522E+01  0.000000000000E+00 -2.669152124044E+01 -1.225622462643E+00  5.107962881143E+01 -4.657135390807E+00  5.325536641715E+01  8.274939732820E-01      228
 Si  2.307024681464E+01  4.628399102397E+00  2.206941911692E+01  0.000000000000E+00 -4.750958761724E+01  4.255445169117E+00 -4.324360295773E+01  2.029107708488E+01 -4.520466026331E+01 -9.531468581573E+00      229
 O   2.216317970632E+01  7.766323604988E-01  2.069525473920E+01  0.000000000000E+00 -4.083848691854E+01  3.575778161152E+01 -3.940735152593E+01  2.727262288490E+01 -4.220253505580E+01 -6.210787640596E+00      230
 O   2.166902503159E+01  3.345133021104E+00  2.159057962554E+01  0.000000000000E+00  1.728566598915E+01  4.984554325560E+00  1.009635962094E+01  2.677916277512E+01  1.013304288947E+01  2.953336186060E+00      236
 O   2.293347796322E+01  4.850471602787E+00  2.377936005548E+01  0.000000000000E+00  3.158739323710E+01 -7.194587335767E+00 -9.568461426990E+00 -3.525334751229E+01 -9.228091032129E+00  6.681078852026E+00      237
 H   1.374729086054E+01  1.669643369411E+01  4.321218198283E+00  0.000000000000E+00  1.275204757714E+01  2.527203165477E+01 -4.737915579454E-02  6.508284737248E+00  5.942155843315E-02  1.548768546441E+01      243
 H   1.952417973854E+01  1.866382451803E+01  8.323683915063E+00  0.000000000000E+00 -1.143427703677E+01  1.531613128533E+01 -4.703195442596E+00  6.830681219570E+00 -1.103189814795E+01 -1.093041259416E+01      247
 H   1.254351637264E+01  8.434282515951E+00  6.411787553910E+00  0.000000000000E+00  2.877562392654E-01 -3.763579064029E+00  4.449036891768E+00 -2.861093324211E+00  8.703745503913E+00  1.934878024304E-01      248
 H   5.498426851576E+00  1.026837063785E+01  1.057715848755E+01  0.000000000000E+00  1.113530858157E+01  4.251314380719E+01 -4.466101490449E+00  4.379158833585E+01 -2.321656840621E+00  2.079530723403E+01      249