     8448
Lattice="     49.70      0.00      0.00      0.00     49.70      0.00      0.00      0.00     49.70" pbc="T T T" config_type=md Properties=species:S:1:pos:R:3:charge:R:1:forces:R:3:id:I:1
 Si  1.054100357485E+01  1.751466259994E+01  1.670931467565E+01  0.000000000000E+00  2.703126618635E+01  5.010722923067E+01 -8.683403418629E-01  4.780323091942E+01 -5.477889922737E-01  4.491446222756E+01        1
 Si  1.285197023110E+01  1.969503233513E+01  1.720450013962E+01  0.000000000000E+00 -2.071193700190E+01 -2.654309603102E+00  1.023915478590E+02 -2.318659302514E+00  7.648772788054E+01 -3.174005709945E+01        2
 Si  1.136393799132E+01  2.224377132934E+01  1.797462659928E+01  0.000000000000E+00  1.374263327308E+01  2.632486745147E+01  2.520979140258E+01  2.127245671203E+01  1.593816175767E+01  2.689982928655E+01        3
 O   1.188548524902E+01  1.848141643424E+01  1.749551747382E+01  0.000000000000E+00 -2.249081033956E+01 -3.955866679122E+01  8.223836417195E+00 -3.744839301410E+01  5.586818827920E+00 -3.497223908996E+01        4
 O   1.003647500281E+01  1.880308992354E+01  1.583290637299E+01  0.000000000000E+00 -5.748498459979E+00 -1.870364340184E+01 -1.109836114377E+01 -1.574916867490E+01 -7.035248081906E+00 -1.076967096895E+01        5
 O   1.142569731750E+01  1.631832501029E+01  1.599096607321E+01  0.000000000000E+00 -3.458161347782E+00  1.941425959410E+01 -3.464511571945E+01  1.902479367889E+01 -2.475426462215E+01 -4.938989651398E+00        6
 O   9.349571312014E+00  1.693571535352E+01  1.757244040479E+01  0.000000000000E+00 -1.072898117859E+01 -4.751438146685E-01  3.037206759819E+01 -4.930075991876E-01  1.615972542011E+01 -1.943436390933E+01        7
 O   1.289133985343E+01  1.997640713333E+01  1.573505583930E+01  0.000000000000E+00 -3.655068485795E+00  3.541275464262E+01 -9.741085347244E+01  2.789398854387E+01 -7.980628924047E+01 -5.663890410354E+00        8
 O   1.435885884724E+01  1.953424274460E+01  1.760245446825E+01  0.000000000000E+00  4.236812057732E+01 -6.339915965768E+00  7.447379111208E+00 -5.712946418197E+00  6.075054227953E+00  5.763892247949E+01        9
 O   1.250124756876E+01  2.103891954369E+01  1.825814746084E+01  0.000000000000E+00 -1.757467350735E+01  1.039010692886E+01 -2.353015636304E+01  9.016817809826E+00 -1.611096145744E+01 -2.957721938503E+01       11
 O   1.902211502686E+01  1.695671512143E+01  2.078667128372E+01  0.000000000000E+00 -2.828399363816E+01  5.317038709041E+00  6.518206829191E+01  6.517980343253E+00  5.964883861461E+01 -2.521294934562E+01       13
 Ca  4.104641750393E+00  1.596077554762E+01  1.729624106883E+01  0.000000000000E+00 -3.460598184473E-01 -1.177496121967E+01  4.422042000026E+00 -1.276019246207E+01  1.049412883589E+00 -1.345643158202E+00       14
 Ca  2.248909361894E+01  1.362313124972E+01  1.767596107470E+01  0.000000000000E+00 -3.225635374351E+00 -2.112856559069E+01  4.959348027620E+00 -2.741423363685E+01  6.309769613700E+00 -1.953980663387E+00       15
 O   7.148117763313E+00  4.195752684772E+00  1.668108540348E+01  0.000000000000E+00 -6.426217013305E+00  9.253237403305E-01  4.426152744726E+01  3.678816531380E+00  1.896678800716E+01 -3.772016379597E+00       16
 O   1.038364718838E+01  1.668085924213E+01  2.104229182174E+01  0.000000000000E+00  2.328526762176E+01 -1.514855457929E+01 -2.596677189148E+00 -1.910934571824E+01 -1.281370870751E+00  3.740672853837E+01       18
 Si  2.043542923665E+01  1.923624284800E+01  1.769178300183E+01  0.000000000000E+00 -1.091051937479E+01  7.685112077037E+00  2.176068124614E+00  7.068081656385E+00  2.513533326182E+00 -1.027027119719E+01       19
 Si  1.807870212898E+01  2.132473805048E+01  1.776270123135E+01  0.000000000000E+00  3.092443290883E+01 -1.649463739651E+01  4.252802562537E+01 -1.373940984878E+01  4.328460504969E+01  3.647692331207E+01       20
 O   1.873386200212E+01  1.963589896143E+01  1.765030361286E+01  0.000000000000E+00 -5.102287043510E+00  5.285277380258E+01 -1.778689839238E+01  4.750826566332E+01 -1.887884238353E+01 -5.347962574253E+00       22
 O   2.154529721160E+01  2.042288098913E+01  1.788796153024E+01  0.000000000000E+00 -7.442775384265E+00 -1.400221531534E+01 -5.466052273417E+00 -1.226423877377E+01 -6.583630035528E+00 -7.055039176709E+00       23
 O   2.102488967880E+01  1.815094158235E+01  1.659017260493E+01  0.000000000000E+00 -1.726993860114E+01  1.643987345353E+01  1.049559051689E+01  1.502623635032E+01  1.330116557472E+01 -1.490926475568E+01       24
 O   2.016571743689E+01  1.867936646291E+01  1.925510420807E+01  0.000000000000E+00  2.812436682202E+01 -2.408880389361E+00  6.200118779558E+00 -2.483127198882E+00  6.493335067556E+00  2.605140908326E+01       25
 O   1.869816254351E+01  2.197515899004E+01  1.931751589268E+01  0.000000000000E+00  1.034931584837E+01  6.802657354057E+00 -2.189327534260E+00  5.979954074916E+00 -2.119133864002E+00  1.216311285545E+01       26
 O   2.153442991385E+01  1.710923338271E+01  2.083207821536E+01  0.000000000000E+00  3.124488652423E+01  9.846547824659E+00  9.204288801282E+00  1.198908506572E+01  9.514610594728E+00  2.482424924634E+01       27
 O   1.902964941648E+01  2.219064806974E+01  1.675789354685E+01  0.000000000000E+00 -1.855792834431E+01  9.282890649603E+00 -6.868644938108E+00  7.010236601663E+00 -7.799781325325E+00 -2.164056981708E+01       29
 Ca  4.549742821106E+00  9.869324127887E+00  1.353315349975E+01  0.000000000000E+00  1.440053658108E+00  1.270665267059E-01  5.633517261852E+00  1.742379506751E-01  1.902305735487E+00  3.160903352879E+00       32
 Si  1.248671980370E+01  1.847821811617E+01  1.185322909746E+01  0.000000000000E+00 -2.438327497609E+01 -6.941846200337E+01  1.375660978438E+01 -4.452988532478E+01  1.449182584880E+01 -3.608309311637E+01       37
 Si  1.250567531334E+01  2.037459215705E+01  1.420026152953E+01  0.000000000000E+00 -2.473038093228E+01  3.402231338142E+01  8.676540098384E+00  2.371216778876E+01  7.641126403763E+00 -4.029142071569E+01       38
 O   1.221840414335E+01  1.909753592971E+01  1.335721970905E+01  0.000000000000E+00 -7.547270133741E+00 -2.707760329192E+01  4.093496850494E+00 -1.893864725250E+01  3.744491740671E+00 -1.179648838419E+01       40
 O   1.358022214003E+01  1.733543639016E+01  1.238861554943E+01  0.000000000000E+00 -8.478563347843E+00  7.008733021833E+00 -1.513810994319E+01  5.008728764704E+00 -1.659417833966E+01 -1.082306269226E+01       41
 O   1.302241454517E+01  1.973138458438E+01  1.103270301206E+01  0.000000000000E+00  2.843652148396E+00  3.023577417229E+01 -1.007922459976E+01  1.690617885207E+01 -1.189697945177E+01  4.308662880417E+00       42
 O   1.095354754420E+01  1.787313789705E+01  1.134812613271E+01  0.000000000000E+00  2.924952184694E+01  3.364021083336E+01  1.237600813098E+01  2.135905613590E+01  1.194568970109E+01  4.772707063933E+01       43
 O   1.371420101398E+01  2.129073084497E+01  1.374909444429E+01  0.000000000000E+00  2.374548707901E+01  2.571571168187E+00 -7.171092155660E+00  1.660665156076E+00 -7.152892847669E+00  3.686388829115E+01       44
 O   1.105056302970E+01  2.123350768104E+01  1.398520278453E+01  0.000000000000E+00  3.634955790150E+00 -1.967343480286E+01  1.794568686882E+01 -1.295767893459E+01  1.417998343754E+01  6.984518479553E+00       46
 O   8.525727595931E+00  2.198771631611E+01  1.513603527713E+01  0.000000000000E+00 -3.323452043411E+00 -1.962699243585E+01 -6.156007758858E+00 -1.351094609473E+01 -3.467516048258E+00 -8.571130135051E+00       47
 O   1.690887379028E+01  1.537796467554E+01  9.830636107899E+00  0.000000000000E+00 -1.326246571428E+01  7.829001866867E+00  3.882690909014E-01  5.004828016260E+00  6.678299331459E-01 -1.206169800511E+01       48
 Ca  7.129706838504E+00  2.181865276541E+01  1.349935789886E+01  0.000000000000E+00 -2.058659346090E-02 -2.548980353518E+00 -6.602779069143E+00 -1.577072536937E+00 -3.487268019347E+00 -6.300002854539E-02       49
 Si  2.074708055341E+01  2.131053117465E+01  2.277219893465E+01  0.000000000000E+00 -3.898473504472E+01 -7.870025419096E-01 -2.319490810838E+00 -8.409822495537E-01 -2.113219844664E+00 -4.004348512397E+01       51
 Si  1.976165897214E+01  2.300635134662E+01  2.012241647937E+01  0.000000000000E+00 -1.191565944144E+01  4.784905850764E-01 -6.067429592018E+00  4.185099448974E-01 -5.958651862607E+00 -1.387210699380E+01       52
 O   2.066950935586E+01  2.230403451922E+01  2.138872921203E+01  0.000000000000E+00 -3.728434719689E-01 -2.765380774063E+01  1.668382331823E+01 -2.651896027762E+01  1.612281116607E+01 -4.023275795224E-01       54
 O   1.908942647180E+01  2.082655134801E+01  2.314147256438E+01  0.000000000000E+00  2.962239388966E+01  1.061332245394E+01 -2.093954475888E+01  1.179301874231E+01 -1.727305377458E+01  3.231801166502E+01       55
 O   2.184860887229E+01  2.013123802270E+01  2.269796245501E+01  0.000000000000E+00 -1.749626138227E+01 -4.902949102158E+00 -1.684731503254E+01 -5.528073063074E+00 -1.621689160090E+01 -1.612099902803E+01       56
 O   2.112669396770E+01  2.226230178620E+01  2.404128828923E+01  0.000000000000E+00  6.623343877297E+00  1.155744946691E+01  1.111177034203E+01  1.248100835172E+01  9.764658558695E+00  6.979363664548E+00       57
 O   1.648690198264E+01  2.153054071879E+01  1.773470126597E+01  0.000000000000E+00  8.518949489918E+00 -1.530968503851E+01 -1.576764715346E+01 -1.261058392264E+01 -1.465824821164E+01  1.112504878522E+01       58
 O   1.701835125596E+01  1.842731493092E+01  1.576680377521E+01  0.000000000000E+00 -3.263488598934E+01 -2.007768341746E+00 -3.716079824641E+00 -1.717889426053E+00 -4.011057196661E+00 -3.533675576533E+01       59
 H   3.470302743938E+00  7.889190890099E+00  1.500172416023E+01  0.000000000000E+00 -4.097224120673E-01 -2.640755650131E+00  2.885228079503E+00 -5.021540027325E+00  4.916583095378E-01 -2.789992255424E+00       70
 H   1.506679422060E+01  2.024774461498E+01  1.752728037172E+01  0.000000000000E+00 -2.322715668960E+00 -7.742486881728E+00  9.915627346141E+00 -6.702215033373E+00  8.523667883665E+00 -3.121417402384E+00       73
 H   1.646501635986E+01  1.206413013974E+01  1.593924476204E+01  0.000000000000E+00 -3.454182146055E+00  7.461618401390E+00  3.910284043683E+00  9.858361990722E+00  4.039268592217E+00 -2.530923870682E+00       83
 Si  2.001779427527E+00  2.134041617287E+01  2.148871562352E+01  0.000000000000E+00  1.094648224694E+00  5.198653863879E+01 -8.354889973954E+01  5.234780502924E+01 -8.666631192128E+00 -2.670844244356E+00       89
 Si  2.485611515019E+00  2.084257124560E+01  1.864987180433E+01  0.000000000000E+00  2.311159953693E+00 -3.541141970823E+00 -1.900788384788E+01 -3.168603480759E+00 -1.992256913935E+00 -2.533141198586E-02       90
 O   1.474444625556E+00  2.083791160612E+01  1.992306486268E+01  0.000000000000E+00  1.340510590838E+01 -3.169344265258E+01 -1.281064810532E+01 -3.030200557640E+01  1.318099886149E+00  1.497487056802E+01       92
 O   7.658592114378E-01  2.116306687778E+01  2.235450675391E+01  0.000000000000E+00  4.122251553531E+01 -4.025278207219E+01  7.317841450972E+01 -4.251893612080E+01  1.044607350953E+00 -5.711561811579E+01       95
 O   1.641539107069E+00  1.999430411078E+01  1.748050298283E+01  0.000000000000E+00  3.904458284981E+01 -2.306932506094E+01  9.334470562666E+00 -2.016891427206E+01 -2.024209156285E+00 -1.390839492966E+01       96
 O   3.932691470324E+00  2.011842048141E+01  1.885790555075E+01  0.000000000000E+00  5.506768890590E-02  1.626357838190E+01  1.176565300598E+01  1.524458768154E+01  2.468967095849E+00 -6.366372089118E-01       97
 O   1.081362118326E+01  1.334405312478E+01  2.169495690219E+01  0.000000000000E+00  1.175692136335E+01  1.418465481424E+01  6.172020039593E+00  2.306161943375E+01  3.076377931727E+00  1.450808943624E+01       98
 O   3.552294856901E+00  1.284796384544E+01  2.003614522434E+01  0.000000000000E+00 -2.103465844063E+00 -1.270407544423E+01 -9.294366016776E+00 -1.981175411168E+01 -1.672993910173E+00 -1.276847888561E+01      101
 Ca  2.204972235002E+01  2.467542856996E+01  1.782027962327E+01  0.000000000000E+00 -8.308561224048E+00 -8.708753195162E+00 -9.711927380753E+00 -6.289350422742E+00 -1.201694399619E+01 -9.297954221310E+00      102
 O   1.660742669569E+01  3.003758393364E+00  1.161696831706E+01  0.000000000000E+00 -6.401102571823E+01 -4.804285089892E+00  8.398277555884E+00 -1.811791051669E+01  1.200603936180E+01 -1.165402901789E+01      105
 Si  6.191601994897E+00  1.609817576480E+01  2.004763757872E+01  0.000000000000E+00  5.069221125923E+00 -1.015579928522E+01 -3.323994606802E+01 -1.264738231009E+01 -1.026597351318E+01  1.317998358793E+01      107
 Si  8.859738842515E+00  1.667236055791E+01  2.101601883119E+01  0.000000000000E+00 -3.351111538243E+01  2.190056743461E+01  3.346211440551E+00  2.760633300970E+01  1.410664870128E+00 -6.306161031211E+01      108
 Si  7.874194298195E+00  1.982115747228E+01  2.051452741403E+01  0.000000000000E+00 -1.726940127009E+00 -1.689287287275E+01  1.294299981291E+01 -1.748380759975E+01  4.967976754788E+00 -4.347105355336E+00      109
 O   7.885506704740E+00  1.576808575477E+01  1.995797436811E+01  0.000000000000E+00  2.286151785969E+00  1.712690187101E+01  3.292469977497E+01  2.167785448802E+01  1.300873205058E+01  4.571454791601E+00      110
 O   5.990350136392E+00  1.689907548078E+01  1.865823879715E+01  0.000000000000E+00 -5.551456682802E+00  2.085059393825E+00 -8.559066863762E+00  2.302110320797E+00 -2.747944643229E+00 -1.566093523332E+01      111
 O   5.272898397730E+00  1.684151402874E+01  2.113286859902E+01  0.000000000000E+00  3.172130686953E+00 -8.628966924302E+00  1.469747966418E+01 -1.082769778569E+01  3.667193434189E+00  1.013171114549E+01      112
 O   5.739337005245E+00  1.453712284168E+01  1.980211429506E+01  0.000000000000E+00 -1.050895303544E+01 -2.072298105658E+01  1.401499994953E+01 -2.822833953362E+01  4.062031288190E+00 -2.661804683609E+01      113
 O   8.201787187236E+00  1.632619999781E+01  2.259359980372E+01  0.000000000000E+00 -5.754963096789E-01 -1.290232065601E+01  3.456687114326E+01 -1.785534107633E+01  1.254824920812E+01 -1.145563477243E+00      114
 O   1.331800312279E+01  1.262815724360E+01  3.533573763620E+01  0.000000000000E+00  3.010138907623E+01  1.333975531814E+01  1.533654977305E+02  3.732691040824E+01  5.780329814342E+01  2.854219743011E+01      115
 O   8.315556908074E+00  1.822767698559E+01  2.069495561702E+01  0.000000000000E+00  1.586852828144E-01  3.065793977547E+00  1.342900053606E+01  3.480776532654E+00  5.395982491712E+00  3.478376865775E-01      117
 O   6.398280036105E+00  2.014121455622E+01  2.128109192942E+01  0.000000000000E+00  7.536492070917E+00 -1.223434025606E+01 -8.278139940757E+00 -1.292673383515E+01 -2.488869353823E+00  2.372420446511E+01      118
 O   6.625329689821E+00  9.850809125262E+00  2.242562129445E+01  0.000000000000E+00  1.069461979559E+01 -1.894972765438E+01 -6.808804150908E+01 -4.313954423502E+01 -2.011563991957E+01  1.590119483947E+01      119
 Ca  2.261170587436E+01  1.941830807336E+01  2.034172175475E+01  0.000000000000E+00  7.019274812581E+00 -1.360523339359E+00  6.407172475571E+00 -1.425221348096E+00  7.122165038469E+00  6.027959213676E+00      120
 Ca  3.553073948805E+00  1.241292018211E+01  1.779068460737E+01  0.000000000000E+00 -4.523659002954E+00 -1.529351871949E+00 -4.820706051629E+00 -2.191927153994E+00  1.124444282930E+00 -2.907656007755E+00      121
 Si  1.485048185870E+00  1.676736245948E+01  1.463377015281E+01  0.000000000000E+00 -3.648276994824E+00 -1.667823183815E+01  4.428378033359E+00 -1.455598111298E+01  9.377016749181E-01 -3.837831059057E+01      125
 Si  2.268917885649E+00  1.898117452386E+01  1.625319760173E+01  0.000000000000E+00 -6.583562252121E+00  7.010063225989E+01 -8.959809604509E+00  6.002576008635E+01 -1.365332996616E+00 -4.005040268431E+01      126
 Si  3.436510840508E+00  2.090626546567E+01  1.398108649050E+01  0.000000000000E+00 -1.954250632920E+01 -1.105075413186E+02 -2.325214904260E+01 -7.390203169305E+01 -5.677427218179E+00 -1.180014694257E+02      127
 O   1.031586918539E+00  1.792573288855E+01  1.582981778688E+01  0.000000000000E+00  2.806567581772E+01  1.664768449555E+01 -1.481515281068E+01  1.470120155067E+01 -3.523292797756E+00  2.258794047747E+01      128
 O   2.954044205336E+00  1.656658555673E+01  1.413598547477E+01  0.000000000000E+00  6.084824344808E+00  1.493344825865E+01  1.169307138715E+01  1.274245721604E+01  2.509671964701E+00  3.044394888277E+01      129
 O   1.172436079998E+00  1.547409577803E+01  1.585779975536E+01  0.000000000000E+00  2.553042546054E+00  1.485016423017E+01 -4.224500541248E+01  1.521839686624E+01 -2.546540063892E+00  1.142845598057E+01      131
 O   3.521753694305E+00  1.828445101762E+01  1.686459994842E+01  0.000000000000E+00  6.707924382899E+00 -2.873113294540E+01 -1.116777119427E+01 -2.650006077416E+01 -2.311955326117E+00  3.435218973719E+01      132
 O   2.459583439637E+00  4.645095122591E+00  9.057908861927E+00  0.000000000000E+00  6.659290949031E+00  1.773965465182E+00  3.561131748989E+00  3.459222488185E+00 -4.567124820985E-01  4.636599874337E+00      133
 O   2.312255281794E+00  2.042121886681E+01  1.523774831911E+01  0.000000000000E+00  6.133852039575E+00 -4.391597700381E+01 -4.894901327531E+00 -3.276888657510E+01 -2.259382744758E+00  2.461022872227E+01      134
 O   2.327955150854E+00  2.107132558207E+01  1.270999321217E+01  0.000000000000E+00  4.287904042000E-02  1.531300348245E-01  8.698098547503E+00  9.236636279093E-02  1.691521361397E+00 -1.070533435573E+00      135
 O   8.097908506017E+00  1.627097932404E+01  1.238855967200E+01  0.000000000000E+00 -8.413833403822E+00 -2.507611440301E+01  5.210060319748E+00 -1.909270077953E+01  3.405609118184E+00 -1.690576143800E+01      136
 Si  8.941837625876E+00  1.389086326224E+01  2.594428364667E+01  0.000000000000E+00  1.882558074803E+01  1.159158696204E+01  4.391796802738E+01  2.164987260913E+01  1.513656512192E+01  2.924494706170E+01      139
 Si  8.108730625581E+00  1.631588061955E+01  2.433323859055E+01  0.000000000000E+00  3.743490143205E+01  7.201832970743E+00 -8.711755227369E+01  1.074069638365E+01 -2.903077457275E+01  7.532416736636E+01      140
 O   8.127480663603E+00  1.507845993918E+01  2.527202235193E+01  0.000000000000E+00 -2.593486818324E+01 -3.467943616538E+01 -3.344255012768E+00 -5.812393901360E+01 -1.075512183866E+00 -4.811550923525E+01      142
 O   8.484669777635E+00  1.238898727267E+01  2.610771910778E+01  0.000000000000E+00 -2.978948474052E+01 -3.048913774940E+01 -1.596494246426E+01 -6.425075970138E+01 -5.188399042789E+00 -4.349745564436E+01      143
 O   7.412152886838E+00  1.759352613846E+01  2.487214031689E+01  0.000000000000E+00 -1.053941554723E+01  4.101689522289E+00  2.154721515760E+01  5.798598673844E+00  6.421291091111E+00 -2.501641368509E+01      148
 O   1.226833005351E+01  1.541208194009E+01  7.055402953861E-01  0.000000000000E+00  4.920958196872E+00 -8.492601882870E+00  3.314942986849E+01 -2.452606890469E+01  6.660503028103E+00  6.181950650423E+00      150
 Ca  5.995472328560E+00  1.086347934128E+01  7.820374911405E+00  0.000000000000E+00  7.831538057625E-01  7.901075091409E+00  3.194963549755E+00  5.687806592789E+00  2.449411411898E+00  1.419033351121E+00      151
 Ca  1.280381791728E+01  2.226181978779E+01  1.199090585239E+00  0.000000000000E+00  1.059089907354E+01  6.072056674713E+00 -5.358783882994E+01 -8.784427958854E+00  6.442248989443E+00  1.841424863186E+01      152
 H   5.970290537352E+00  1.946842856880E+01  1.565172812465E+01  0.000000000000E+00  1.082317002012E+01 -4.489298470151E+01  1.608617203716E+01 -3.609191100191E+01  6.136007470280E+00  3.529310861950E+01      155
 H   1.351406730174E+01  1.234101664370E+01  3.633925137312E+01  0.000000000000E+00 -1.701603684918E+01 -3.522750330792E+00 -9.540909304108E+01 -1.037306029895E+01 -3.548132820119E+01 -1.553900755981E+01      156
 H   1.745407285600E+01  1.900424114008E+01  1.637487275627E+01  0.000000000000E+00  4.808370892760E+01  1.885034241110E+01  1.732316449734E+01  1.624226698233E+01  1.846486258144E+01  5.235422167127E+01      159
 H   1.682205012790E+01  2.660133060567E+00  1.057435975276E+01  0.000000000000E+00  5.063195585092E+00  2.147096846999E+00  1.075644524249E+01  6.133355519143E+00  1.711171790044E+01  9.471269052647E-01      160
 H   1.696067210699E+01  1.854106334732E+01  2.222669327062E+01  0.000000000000E+00 -3.114784449117E+01 -4.486803308303E+00  2.471108546357E+01 -5.378699108628E+00  1.885645394267E+01 -3.405019295228E+01      164
 H   1.779025658233E+01  9.656549989762E+00  3.420920594000E+00  0.000000000000E+00 -2.538064106648E-01 -1.924516988974E+01  3.022852984106E+00 -6.857158560840E+00  1.578010837689E+01 -1.377661014030E-01      168
 H   6.001440513828E+00  2.214298627969E+01  3.076851880889E+01  0.000000000000E+00  1.411573289635E+01 -5.675687658671E+01 -4.576439562637E+01 -7.886583149777E+01 -8.926406230632E+00  5.208157593688E+01      169
 Si  1.165851789257E+01  7.019907179738E-01  1.949642549151E+01  0.000000000000E+00  1.160843075936E+01 -1.592510689662E+02 -4.817113152673E+01 -3.268769263253E+01 -2.880548534676E+01 -8.482074136266E+01      177
 Si  1.061577508266E+01  3.458574326000E+00  1.886497826793E+01  0.000000000000E+00 -3.942236359836E+00  3.415514524997E+00 -3.833326846921E+01  1.130544640816E+01 -2.157104823937E+01 -1.378022406627E+00      178
 Si  8.042903186988E+00  4.316750713475E+00  2.016199456094E+01  0.000000000000E+00  1.895017058063E+01 -7.404915495154E+00 -1.810220239820E+00 -3.458570481531E+01 -7.221223124522E-01  1.017085006155E+01      179
 O   1.083624123115E+01  1.840253194233E+00  1.857984419061E+01  0.000000000000E+00  1.670319166854E+00  8.018084176124E+00  1.767131457482E+00 -8.324705414772E+00  1.030636347861E+00  3.597978229025E+00      180
 O   1.231922896590E+01  9.965003717314E-01  2.094944668866E+01  0.000000000000E+00 -2.938034480993E+01  3.809497687097E+00  4.429348524584E+01  4.754787010272E-01  2.604658703166E+01  1.118375973902E+00      182
 O   1.177406297630E+01  4.151875264249E+00  1.746856242374E+01  0.000000000000E+00 -2.913033237939E+01 -3.394245400562E+00  5.230847979221E+01 -1.431688388201E+01  3.525666968629E+01 -1.026989226435E+01      184
 O   1.115266263728E+01  3.803721185573E+00  2.027427037468E+01  0.000000000000E+00  1.467655204712E+01  3.927748616245E+00  2.155005056940E+01  1.973350862351E+01  1.185445588794E+01  4.992533612481E+00      185
 O   8.925125476640E+00  3.866421001683E+00  1.879914367995E+01  0.000000000000E+00  1.410516708162E+01 -5.358965286812E+00 -3.281524879602E+00 -2.472018846225E+01 -1.557944436395E+00  6.149839339279E+00      187
 O   6.567486603673E+00  4.423413339368E+00  1.984029003019E+01  0.000000000000E+00 -2.343953072192E+01  7.123428151135E+00 -3.299366443048E+01  3.215849938026E+01 -1.092148596737E+01 -1.579710260489E+01      188
 Ca  1.172853781723E+01  2.719789397520E+00  2.243429227958E+01  0.000000000000E+00 -3.696585714765E+00 -7.669825021593E+00 -1.326687247544E+01 -1.144835363765E+01 -6.935855769614E+00 -1.607618872766E+00      190
 O   1.526909998949E+01  1.985934767767E+01  8.805476573408E+00  0.000000000000E+00 -7.280990741298E+00 -1.361262453982E+01  3.494661128675E+00 -6.035729291489E+00  6.059902579752E+00 -9.469826425185E+00      193
 O   4.198927923296E+00  1.210766462222E+01  1.378331260324E+01  0.000000000000E+00  4.342312820926E+00 -1.549896071688E+00 -2.940756307610E+01 -1.764394928763E+00 -8.958676430749E+00  1.252111688530E+01      194
 Si  1.754372097451E+01  1.833060547913E+00  1.992705403243E+01  0.000000000000E+00  2.281788222088E+01  7.063400097101E-01  4.375033412976E+01 -7.713394302351E+00  3.851766815433E+01  7.987024976992E-01      196
 Si  1.582324138667E+01  3.996712015261E+00  1.978395604789E+01  0.000000000000E+00 -1.780340605871E+01 -4.927248027312E+00 -9.136586356787E+00 -2.163932377940E+01 -7.307457164966E+00 -4.346626522312E+00      197
 O   1.892903613204E+01  2.270776452516E+00  2.085432053487E+01  0.000000000000E+00 -2.920924925297E+01  9.343571903902E+00  3.749989370712E+00  4.796970195288E+00  3.403787918875E+00 -6.474909592788E-01      202
 O   1.628385841107E+01  2.502043601415E+00  2.062059806045E+01  0.000000000000E+00 -1.996554018541E+01  1.244393235284E+01 -2.424186237246E+01  5.103442405709E+01 -1.914353081985E+01 -5.599296063300E+00      205
 O   1.503400551603E+01  4.904804749222E+00  2.083405922171E+01  0.000000000000E+00  2.353205120172E+00  1.441212289318E+00  4.921587916752E+00  6.121813960378E+00  3.551452892624E+00  7.677269798130E-01      206
 Ca  1.349149331670E+01  5.584269494763E+00  1.922092309582E+01  0.000000000000E+00  1.189000122349E+01 -1.221400848990E+00 -2.974712604953E+00 -4.204032740471E+00 -2.088001446588E+00  4.921395250061E+00      209
 O   2.299549561190E+01  1.814535252575E+01  1.463349054231E+01  0.000000000000E+00 -3.751145347878E+01  3.426308575796E+01 -2.199249550265E+01  2.763178839751E+01 -3.455965153109E+01 -2.959964675749E+01      210
 O   1.284454550744E+01  1.721214905477E+01  4.195540019732E+00  0.000000000000E+00  3.790002710223E+01  4.563040651566E+01 -2.108874829082E+01  1.117686971701E+01 -6.411195990593E+01  5.078738794498E+01      212
 Si  1.295589577086E+01  4.063162450363E+00  1.410830206651E+01  0.000000000000E+00 -1.002664151422E+01  8.284080231658E+00  1.874442704623E+01  2.876436954693E+01  1.721332885776E+01 -3.144504557952E+00      213
 Si  1.167367413348E+01  5.603493165581E+00  1.673192067141E+01  0.000000000000E+00  1.085245978752E+01 -5.769862366266E+00 -4.226467243090E+01 -1.722869584107E+01 -2.948758979954E+01  5.209301163775E+00      214
 Si  9.551483502544E+00  6.846475379288E+00  1.486838602838E+01  0.000000000000E+00  1.772678771424E+01 -8.609958147714E+00 -5.385182274957E+01 -1.869811462635E+01 -3.459452798660E+01  1.270650947647E+01      215
 O   1.285376267932E+01  5.145448931908E+00  1.553770012349E+01  0.000000000000E+00 -6.664882428089E+00 -2.274457270798E-01 -9.527904003470E+00 -6.868173309077E-01 -7.882081383897E+00 -2.667997926092E+00      216
 O   1.398521182380E+01  2.892349865120E+00  1.473748612843E+01  0.000000000000E+00 -2.674188633320E+00 -6.742305289246E-01 -8.441962742227E+00 -9.028185877400E+00 -8.011043140590E+00 -4.251853582974E-01      217
 O   1.358561063562E+01  4.971292177141E+00  1.292703339331E+01  0.000000000000E+00 -1.190400140118E+01 -5.968689387427E+00  3.900851811149E+00 -1.552060194336E+01  4.099583581252E+00 -4.355952090015E+00      218
 O   1.135167185506E+01  3.670192533326E+00  1.400155211480E+01  0.000000000000E+00  1.940908017078E+01 -2.218631617879E+00  3.178727080000E+00 -7.916402093156E+00  2.577133337297E+00  6.226272148481E+00      219
 O   1.224869696354E+01  6.798138061342E+00  1.765454254727E+01  0.000000000000E+00  1.085784346188E+01  3.521776740067E-01  1.273424058500E+01  9.145939187829E-01  8.834998333654E+00  6.026201735745E+00      220
 O   1.030743788384E+01  6.162879775991E+00  1.609725396399E+01  0.000000000000E+00  5.254681014363E+00 -5.868779346275E+00  1.602025832681E+01 -1.532907261369E+01  1.025813582590E+01  3.141805724921E+00      222
 O   1.059222681242E+01  7.099955092158E+00  1.357981800180E+01  0.000000000000E+00 -6.242196626362E+00 -8.135825076559E-01  1.469609753259E+01 -1.556108769704E+00  1.146292227937E+01 -4.184135829837E+00      223
 O   2.204849255637E+01  2.022709169877E+01  1.300602461337E+01  0.000000000000E+00 -3.463110815061E+01 -1.869423188913E+00  5.234782098382E+01 -1.202039540331E+00  8.874276157508E+01 -3.177027174993E+01      224
 Ca  1.563817706533E+01  6.936699181323E+00  6.644013437471E+00  0.000000000000E+00  3.879443236993E+00 -5.281270020008E-01 -3.145671161789E+00 -5.058433134065E-01 -7.404043215794E+00  1.720822741271E+00      225
 Ca  1.682348219231E+01  4.040462582680E+00  1.665313774462E+01  0.000000000000E+00 -1.646084014183E+00 -4.102475053195E+00  7.776939612616E-01 -8.395764997245E+00  7.856489695206E-01  1.729492401395E-01      226
 Si  2.040202568001E+01  2.358671826849E+00  2.031157631557E+01  0.000000000000E+00  1.105204320784E+01  2.281527876948E+00 -7.267879500452E+01  7.909166727700E+00 -7.300244053130E+01  3.939468719710E+00      228
 Si  2.213067321754E+01  4.650363278576E+00  2.001740486682E+01  0.000000000000E+00  3.936967848940E+01 -1.799960311119E+01  5.019481574303E+01 -7.747896698277E+01  5.549395997205E+01  8.272830443827E+00      229
 O   2.163895162512E+01  1.482669020068E+00  2.080911014522E+01  0.000000000000E+00 -8.830722109062E+00  2.219176392442E+01  3.530077590086E+01 -6.510541650113E-01  3.670852702096E+01 -1.809363070879E+00      230
 O   2.066443311239E+01  4.007391731990E+00  2.032033290154E+01  0.000000000000E+00  1.173579651950E+01 -8.228069563170E-02 -4.762115241843E-01 -2.109356104265E+00 -4.842755892110E-01  2.320970566222E+00      236
 O   2.323660508825E+01  4.027348955385E+00  2.128233167207E+01  0.000000000000E+00 -2.471736464042E+01  4.103424176817E+00  1.875308492968E+01  2.059945329331E+01  2.047510749347E+01 -4.284989949899E+00      237
 H   1.248243037630E+01  1.684978156606E+01  4.909259124435E+00  0.000000000000E+00 -3.144904606900E+01 -4.933521590977E+01  2.614780835379E+01 -1.437403552749E+01  6.648420647516E+01 -4.245243440170E+01      243
 H   1.827474126793E+01  1.889052964757E+01  7.204715845715E+00  0.000000000000E+00 -1.249505540558E+01  1.288974534764E+01 -6.299500496257E+00  4.916058696393E+00 -1.597866510652E+01 -1.291609063715E+01      247
 H   1.393570256924E+01  8.392310763682E+00  8.692787039905E+00  0.000000000000E+00 -4.904600188584E+00  1.421121011489E+00  8.861759753224E+00  1.472002486403E+00  1.420658847319E+01 -2.953631418991E+00      248
 H   5.760716301547E+00  8.343810616188E+00  7.415501124181E+00  0.000000000000E+00 -2.324361312910E+01  1.327646252460E+01 -1.981194662332E+01  1.179935970566E+01 -1.539086866377E+01 -3.366600537733E+01      249