     8448
Lattice="     49.70      0.00      0.00      0.00     49.70      0.00      0.00      0.00     49.70" pbc="T T T" config_type=md Properties=species:S:1:pos:R:3:charge:R:1:forces:R:3:id:I:1
 Si  1.072094018828E+01  1.722581032433E+01  1.637897980182E+01  0.000000000000E+00  3.163425568742E+01  1.588977942536E+01 -1.592985866950E+01  1.510862893316E+01 -1.042696578602E+01  5.082816233025E+01        1
 Si  1.275103314646E+01  1.988264974218E+01  1.679397629683E+01  0.000000000000E+00 -2.356347819517E+01  1.027593973925E+00 -2.194289088553E+01  8.679622215674E-01 -1.666040990324E+01 -3.674246457373E+01        2
 Si  1.104408316653E+01  2.240266992249E+01  1.781732897551E+01  0.000000000000E+00 -1.756733182750E+01  1.162604319823E+02 -5.761266630188E+00  9.246444154339E+01 -3.571124936619E+00 -3.563493052486E+01        3
 O   1.195109420289E+01  1.853164530146E+01  1.680494712567E+01  0.000000000000E+00 -4.986815326280E+00 -1.850531672004E+01  1.802022254438E+01 -1.678107172705E+01  1.281535583387E+01 -7.732672108648E+00        4
 O   9.896668542594E+00  1.830695088345E+01  1.560212738208E+01  0.000000000000E+00 -2.250798244269E+01  8.938967049364E+00 -1.562920779574E+01  7.618248579805E+00 -9.913846064058E+00 -4.163547837240E+01        5
 O   1.160171190576E+01  1.628619402792E+01  1.539488331914E+01  0.000000000000E+00  7.732699712987E+00 -1.921348541098E+01 -4.663084898964E+01 -1.816196992060E+01 -3.514139501311E+01  1.085497113774E+01        6
 O   1.021408867730E+01  1.636561283287E+01  1.755594510618E+01  0.000000000000E+00 -7.959684408151E+00 -4.469767169533E+00  3.507397647249E+01 -4.794870064879E+00  2.040611905476E+01 -1.275347389387E+01        7
 O   1.335357194841E+01  2.022441164849E+01  1.528289689128E+01  0.000000000000E+00  2.165919750648E+01 -1.365426959302E+01  1.622061862284E+01 -1.031806501681E+01  1.417291494988E+01  3.280354709879E+01        8
 O   1.401474299339E+01  2.026752603398E+01  1.764280202700E+01  0.000000000000E+00  2.500676445466E+01 -6.035679008072E+00  2.531623370237E+01 -5.254034935463E+00  2.011021312581E+01  3.616372057977E+01        9
 O   1.156649073830E+01  2.098498879439E+01  1.756881384107E+01  0.000000000000E+00  2.869712335263E+01 -7.661284980834E+01 -1.772007676741E+01 -6.414093947365E+01 -1.166607522092E+01  5.206495432465E+01       11
 O   1.955402666018E+01  1.823315409412E+01  2.092444289416E+01  0.000000000000E+00 -3.029489878445E+01 -9.704342811953E+00  4.774737999123E+01 -1.113674386482E+01  4.462023414553E+01 -2.824848136919E+01       13
 Ca  3.680532757323E+00  1.564738563711E+01  1.730548617191E+01  0.000000000000E+00 -2.547574077019E+00  8.190492439398E+00 -5.357129516482E+00  9.058411222061E+00 -1.088644121262E+00 -9.418374682044E+00       14
 Ca  2.264553447283E+01  1.287736442809E+01  1.835224756614E+01  0.000000000000E+00 -6.302278614693E+00  7.683721076071E+00 -1.099772936083E+01  1.095049784486E+01 -1.357051546225E+01 -3.583785516130E+00       15
 O   6.547794967870E+00  4.598960012837E+00  1.664107446336E+01  0.000000000000E+00  1.525586587171E+01  1.219982720576E+00 -6.201526487672E+00  2.812001472158E+00 -2.440126328291E+00  1.072449806311E+01       16
 O   9.724228239742E+00  1.716292898572E+01  1.982200422801E+01  0.000000000000E+00 -1.081760065949E+01 -1.779901206936E+01  3.819955033323E+01 -2.055663650341E+01  1.873983790049E+01 -1.909269376832E+01       18
 Si  2.039652646195E+01  1.993975659188E+01  1.825696948170E+01  0.000000000000E+00 -4.651185068125E+01 -3.554097656260E+01  1.402595794699E+01 -3.254154690722E+01  1.566967741863E+01 -4.547024136449E+01       19
 Si  1.821484038916E+01  2.172376352558E+01  1.840874007325E+01  0.000000000000E+00 -2.679840124586E+01 -2.813041562835E+01 -6.516416064627E+01 -2.383774380738E+01 -6.447778503809E+01 -3.196086921931E+01       20
 O   1.874373306770E+01  2.010665990301E+01  1.875899655840E+01  0.000000000000E+00  6.895522477782E+00  1.242301618389E+01 -2.220277167818E+01  1.159035458712E+01 -2.218470611705E+01  7.396921670489E+00       22
 O   2.105264968686E+01  2.132258071580E+01  1.827250210297E+01  0.000000000000E+00  2.998523824730E+01  3.154608408398E+01 -1.068153278726E+01  2.703358920049E+01 -1.230672004422E+01  3.036970036174E+01       23
 O   2.043699748396E+01  1.912047034592E+01  1.689643837191E+01  0.000000000000E+00  8.357314855110E+00 -2.714818826714E+00 -3.353222557214E+01 -2.399039781272E+00 -4.055872572464E+01  7.818946544569E+00       24
 O   2.121001789054E+01  1.884786727993E+01  1.920783374385E+01  0.000000000000E+00  1.815409040444E+01 -1.040355852280E+01  1.446139187981E+01 -1.060225114505E+01  1.596881692039E+01  1.613227712945E+01       25
 O   1.851664451427E+01  2.230682907183E+01  1.980119399368E+01  0.000000000000E+00  8.559498297781E+00  4.506550717659E+01  6.377889585333E+01  4.000348266237E+01  5.964141063439E+01  1.031154782510E+01       26
 O   2.205106714900E+01  1.727447417344E+01  2.118640213705E+01  0.000000000000E+00 -8.321458359657E+00 -2.058151875401E+00 -1.141547469201E+01 -2.524235056510E+00 -1.188136604521E+01 -6.518905255149E+00       27
 O   1.888624967607E+01  2.247753166357E+01  1.704190048753E+01  0.000000000000E+00 -1.505680720873E+01 -1.218170486841E+01  2.532290291321E+01 -9.235862960539E+00  2.806345849113E+01 -1.791990821848E+01       29
 Ca  4.897811546184E+00  1.011339809658E+01  1.397261328715E+01  0.000000000000E+00  1.013665784167E+00  5.151977280172E+00 -2.330929110285E+00  7.117942506818E+00 -8.170591481399E-01  2.093099237385E+00       32
 Si  1.243347122349E+01  1.860850718628E+01  1.174322515086E+01  0.000000000000E+00  2.567452591385E+01  4.212600336416E+01  2.907853613979E+01  2.658435398708E+01  3.078772123252E+01  3.842568108169E+01       37
 Si  1.256042407114E+01  2.085642713668E+01  1.400344806615E+01  0.000000000000E+00 -2.209893064912E+01 -2.052340486691E+01 -1.291691901948E+01 -1.377984984249E+01 -1.158585941197E+01 -3.669499805669E+01       38
 O   1.176537249606E+01  1.975866437898E+01  1.293852974632E+01  0.000000000000E+00  1.965577193696E+01  1.794612439465E+01  6.837683935328E+00  1.175162753198E+01  6.217700162754E+00  3.300973266612E+01       40
 O   1.355835717390E+01  1.782038413994E+01  1.262464097291E+01  0.000000000000E+00 -1.027283058883E+01 -8.440454618771E+00 -1.215883030133E+01 -5.979540529170E+00 -1.305809522789E+01 -1.350206259870E+01       41
 O   1.319612632488E+01  1.959662144670E+01  1.057207847025E+01  0.000000000000E+00 -1.323890522924E+01 -2.195599766059E+01 -3.969124443550E+00 -1.184492596296E+01 -4.954282897509E+00 -1.966014933162E+01       42
 O   1.097943204698E+01  1.816773137054E+01  1.141597973670E+01  0.000000000000E+00 -9.456275841250E+00 -2.374903955382E+01 -2.091309931488E+01 -1.492308251277E+01 -2.011338125288E+01 -1.564735575706E+01       43
 O   1.353464952532E+01  2.193238288393E+01  1.333406640270E+01  0.000000000000E+00 -1.158481157621E+01 -7.862197874278E-01 -6.419628832815E+00 -4.779921501533E-01 -6.516198713185E+00 -1.877274492054E+01       44
 O   1.123617912199E+01  2.113260988665E+01  1.493938643733E+01  0.000000000000E+00 -1.324565988027E+01  3.681891180618E+01  6.757243903638E-01  2.602858589756E+01  5.082243718027E-01 -2.491197051079E+01       46
 O   8.776079065227E+00  2.112583702587E+01  1.557306514277E+01  0.000000000000E+00  2.861724514896E+00  1.818436393850E+01  1.383365378107E+01  1.340473676131E+01  7.795847396167E+00  6.888762654173E+00       47
 O   1.696406573513E+01  1.547127477932E+01  1.049710453738E+01  0.000000000000E+00  3.604873675632E+00 -1.692849388628E+00 -8.089750962783E+00 -1.148581306449E+00 -1.307361154925E+01  3.287654743339E+00       48
 Ca  7.632432733168E+00  2.153660907025E+01  1.387227743094E+01  0.000000000000E+00 -3.503928851556E+00 -1.454917774680E+00 -2.035064214774E+01 -9.371495272882E-01 -1.119678495782E+01 -9.887115749870E+00       49
 Si  2.076906401052E+01  2.067191123289E+01  2.318887956209E+01  0.000000000000E+00 -8.031694251669E+01  4.870533081871E+01  9.380852806918E+01  5.463558921394E+01  8.401938174652E+01 -7.994123882332E+01       51
 Si  1.960747101446E+01  2.287879832688E+01  2.086793367056E+01  0.000000000000E+00 -9.344489375946E+00 -2.092300671985E+01  6.011216346924E+01 -1.908404061176E+01  5.648127512035E+01 -1.090353201299E+01       52
 O   2.018649718427E+01  2.185577165678E+01  2.224845214398E+01  0.000000000000E+00 -1.401419597345E+01  1.499355342260E+01 -3.323306257817E+01  1.526294111365E+01 -3.015306951771E+01 -1.517306664713E+01       54
 O   1.951363991602E+01  1.962814399306E+01  2.378946630828E+01  0.000000000000E+00  3.302232029674E+01  1.175982638072E+00 -4.875155372901E+01  1.425300291124E+00 -3.998913857448E+01  3.321609195203E+01       55
 O   2.197113512724E+01  1.993990816128E+01  2.260100722971E+01  0.000000000000E+00  5.894778606907E+01 -3.791430832267E+01 -3.246298625743E+01 -4.297419775354E+01 -3.155826864026E+01  5.349807525742E+01       56
 O   2.129536242072E+01  2.140594378929E+01  2.469144513926E+01  0.000000000000E+00  8.153692874079E+00 -3.626997504912E+00 -2.431884167450E+01 -4.183688922772E+00 -2.097400715875E+01  8.196032915028E+00       57
 O   1.660762821923E+01  2.207731857768E+01  1.814079275203E+01  0.000000000000E+00  1.952188191753E+01 -2.424275878345E+01 -8.785089677344E-01 -1.992012124482E+01 -8.042620034761E-01  2.595137611704E+01       58
 O   1.701865379243E+01  1.791724352714E+01  1.396739016180E+01  0.000000000000E+00  5.350037543949E+01 -3.885837731355E+01 -1.434618570147E+01 -3.029205447651E+01 -1.748019958395E+01  5.632521039762E+01       59
 H   2.489438652698E+00  9.054567149876E+00  1.442370658665E+01  0.000000000000E+00  1.767113562564E+00  8.972111758752E+00 -8.507765326593E+00  1.429235714184E+01 -1.510553899825E+00  3.594049659973E+00       70
 H   1.418908289129E+01  2.021485086143E+01  1.860690077209E+01  0.000000000000E+00  4.061694260262E-01  5.525257170273E-01 -4.132615204631E+00  5.085761582526E-01 -3.151412500908E+00  5.786599764411E-01       73
 H   1.763298733856E+01  1.094758151553E+01  1.862749544283E+01  0.000000000000E+00 -1.265564492501E+01 -5.747944633658E+00 -1.946108872544E+01 -9.780225186470E+00 -1.842207569684E+01 -7.857358585241E+00       83
 Si  2.328979379095E+00  2.089362004236E+01  2.181290903342E+01  0.000000000000E+00 -2.883447393423E+00 -5.156424117743E+00 -2.359374971586E+01 -5.383299303328E+00 -3.034948620570E+00 -5.594552817483E+01       89
 Si  3.015853339098E+00  2.072217171756E+01  1.884869847349E+01  0.000000000000E+00 -2.909703360989E+00 -1.334267025760E+01 -5.780035266588E+01 -1.213637122328E+01 -9.809089403806E+00 -1.736747630756E+01       90
 O   2.117975734998E+00  2.038019582859E+01  2.013558927390E+01  0.000000000000E+00  9.208697604495E-01 -1.704377395850E+00  2.434892042155E+01 -1.683921170297E+00  2.325527393697E+00  5.429601493582E+00       92
 O   1.418699138900E+00  1.984833436846E+01  2.278338862839E+01  0.000000000000E+00  1.252968912533E+01  3.315004221800E+01 -1.900709092170E+01  3.805207433931E+01 -1.335786420236E+01 -1.004813693355E+01       95
 O   2.608113963000E+00  1.948860170288E+01  1.770369728703E+01  0.000000000000E+00 -2.715268822776E-01  1.854078970564E+01 -1.107677775401E+01  1.684269263723E+01 -1.169203787771E+00  4.308216656493E+00       96
 O   4.586172698828E+00  2.050450247006E+01  1.893656424562E+01  0.000000000000E+00 -8.027626638764E-01 -1.048063676294E+01 -1.002888768596E+01 -9.679203466953E+00 -2.428857226072E+00 -3.589103617606E+00       97
 O   1.178436084235E+01  1.377642008228E+01  2.125932898154E+01  0.000000000000E+00 -5.844760516419E+00 -1.866750274277E+00 -9.606555507412E+00 -2.880709064490E+00 -5.325055962479E+00 -6.832774151408E+00       98
 O   3.793788697157E+00  1.198598876522E+01  2.055423097219E+01  0.000000000000E+00  2.218767002839E+00  7.850350652324E+00  4.552210405617E+01  1.346221189434E+01  8.406909190804E+00  5.930579696428E+00      101
 Ca  2.193924217245E+01  2.409396978629E+01  1.847315270390E+01  0.000000000000E+00 -4.153159978021E+00 -8.979644847248E+00  4.567923053457E+00 -6.884807773949E+00  5.424995489470E+00 -4.561055949039E+00      102
 O   1.669213378285E+01  4.610028635522E+00  1.178576609377E+01  0.000000000000E+00  1.440373408667E+01 -4.695814676544E+00 -8.912169600212E+00 -1.200508234830E+01 -1.262227046410E+01  3.978019075441E+00      105
 Si  5.792414482775E+00  1.572401367773E+01  2.037760890667E+01  0.000000000000E+00 -1.474950358332E+01  3.498057550847E+01  2.022668998085E+01  4.533324007799E+01  5.749515191907E+00 -4.003881227309E+01      107
 Si  8.646073887914E+00  1.694127519793E+01  2.107204424190E+01  0.000000000000E+00  8.514869846945E+00 -2.482805673865E+01 -4.892092741155E+01 -3.088184944315E+01 -2.007275365455E+01  1.668419160207E+01      108
 Si  7.651196581241E+00  1.945980689119E+01  2.063635821474E+01  0.000000000000E+00 -2.167964657058E-01  2.983045482524E+01 -6.899037494979E+01  3.163402159766E+01 -2.557907337436E+01 -5.513931464879E-01      109
 O   7.326175458791E+00  1.609197362064E+01  2.055283402791E+01  0.000000000000E+00  7.359250900744E+00  6.341614855329E+00 -4.362484685101E+00  8.099575643311E+00 -1.555032663424E+00  1.616462396084E+01      110
 O   5.242126230551E+00  1.683373363788E+01  1.927302943496E+01  0.000000000000E+00 -2.009206094677E+00 -2.124902154137E+01 -3.027155782188E+00 -2.432811558271E+01 -8.233647327382E-01 -6.452046122867E+00      111
 O   4.910295490390E+00  1.611676812268E+01  2.180431627312E+01  0.000000000000E+00  6.541830136020E+00 -1.782718891262E+01 -3.458270536562E+01 -2.411833826438E+01 -7.787967303134E+00  2.147185634888E+01      112
 O   5.410762446275E+00  1.416693163410E+01  1.994023254611E+01  0.000000000000E+00 -1.833685300568E+00 -7.631030054517E+00  2.379743468587E+01 -1.074082361541E+01  6.457410444850E+00 -4.801115286347E+00      113
 O   8.813034381975E+00  1.582290908311E+01  2.242012224851E+01  0.000000000000E+00  1.011972653940E+00  1.280094872078E+01 -1.588175202253E+01  1.813818392744E+01 -6.242893105986E+00  1.816894227785E+00      114
 O   1.150024227936E+01  1.326959094577E+01  3.739452220157E+01  0.000000000000E+00 -8.605604747553E+00  2.206184211113E+01 -8.464523714953E+01  6.217162593812E+01 -2.603163986870E+01 -9.929604269815E+00      115
 O   8.581758984103E+00  1.849895617916E+01  2.152701316402E+01  0.000000000000E+00 -1.433143994775E+00 -4.003843914323E+00  2.658424741316E+01 -4.659225083598E+00  1.059782898516E+01 -3.089304652679E+00      117
 O   6.109108823229E+00  1.928786386844E+01  2.092961725776E+01  0.000000000000E+00 -3.889284545450E+00  3.851955372061E+00  1.222097015518E+01  4.179827905316E+00  3.567157281663E+00 -1.227936725779E+01      118
 O   6.766521582935E+00  9.855325344780E+00  2.249082568798E+01  0.000000000000E+00 -6.670598491333E+00  1.274830807390E+01  1.408041349239E+01  2.909289796898E+01  4.236190485608E+00 -9.715614968595E+00      119
 Ca  2.324515939851E+01  1.928347492541E+01  2.093465368458E+01  0.000000000000E+00 -1.195045872496E+00 -5.559392491368E+00  7.447601509898E+00 -6.035424473736E+00  8.269574784591E+00 -9.913735897407E-01      120
 Ca  3.103254059198E+00  1.214830391302E+01  1.778950802303E+01  0.000000000000E+00 -4.026521820698E+00  1.031319583135E+01 -2.126675293649E+00  1.510224647807E+01  8.777579401499E-01 -6.565041485143E+00      121
 Si  1.243621543199E+00  1.687985688039E+01  1.460135310658E+01  0.000000000000E+00 -1.965901681600E+02  2.953281185489E+01  1.449908315884E+01  2.554636672450E+01 -8.609634014172E+01  6.701306851832E+01      125
 Si  2.949171966716E+00  1.895279186350E+01  1.611337565347E+01  0.000000000000E+00 -9.136062438538E+00  1.172865240633E+01  6.377694703831E+00  9.971522058246E+00 -1.813114260184E+00 -2.400352951008E+01      126
 Si  3.189685501884E+00  2.068223058616E+01  1.312548031916E+01  0.000000000000E+00  1.144338629752E+01 -2.421936231023E+01  2.025519854460E+01 -1.537023591440E+01  4.679460166599E+00  8.939754541415E+01      127
 O   1.524444888728E+00  1.818948252682E+01  1.575823040996E+01  0.000000000000E+00  2.820693463411E+01 -2.784066766667E+01 -9.666438270421E+00 -2.411941379925E+01  2.819911394197E+01  1.464680522412E+01      128
 O   2.390220705199E+00  1.682792878455E+01  1.333455448863E+01  0.000000000000E+00  2.824416495436E+01 -1.120510379292E+01  3.053916044407E+01 -8.878993308713E+00 -1.620071001375E+00 -1.764595399204E+01      129
 O   9.364857608835E-01  1.546659438559E+01  1.545585926430E+01  0.000000000000E+00  1.456000632856E+01 -4.501648374994E+00 -3.125830136937E+00 -4.498523851257E+00  1.616228590304E+01  3.663463288276E+00      131
 O   4.155931171082E+00  1.785319629960E+01  1.637332835593E+01  0.000000000000E+00 -2.306268465019E+00  1.098562093715E+01 -1.262428172157E+01  1.007501266324E+01 -3.457515256436E+00 -8.009522229047E+00      132
 O   3.185334441183E+00  5.261298271939E+00  8.933125147718E+00  0.000000000000E+00 -8.569040525777E-01 -9.285224562447E+00 -1.956230420403E+00 -1.576532421349E+01 -9.970180827274E-01 -3.256736363407E+00      133
 O   2.984350002993E+00  2.021925533744E+01  1.485543144935E+01  0.000000000000E+00  2.489560022731E+00 -2.101349719761E+01  7.627751197463E+00 -1.543897447856E+01  2.005151288771E+00  2.433898094960E+01      134
 O   1.736756810821E+00  2.110130766427E+01  1.285710523171E+01  0.000000000000E+00  1.107992420342E+01  4.354291535245E+01 -1.079572778478E+01  2.653086025231E+01  1.146595110838E+00 -5.487378366931E+01      135
 O   8.300614941145E+00  1.622674365223E+01  1.227061044966E+01  0.000000000000E+00  8.235758470834E+00 -4.029945063532E+00 -2.414019352047E+00 -3.047431269511E+00 -1.632994966634E+00  1.609995674242E+01      136
 Si  9.305475221928E+00  1.403909067495E+01  2.616834114424E+01  0.000000000000E+00 -2.560875076857E+01 -9.453264053158E+00 -6.005731820944E+01 -1.762053144304E+01 -2.135641244559E+01 -3.863570269521E+01      139
 Si  8.381747936121E+00  1.615245089775E+01  2.398114293248E+01  0.000000000000E+00  9.528321519924E+00  8.050707947352E+00  8.079340721143E+01  1.195268626509E+01  2.823843617685E+01  1.836201072395E+01      140
 O   8.199772887157E+00  1.485186188481E+01  2.508716593726E+01  0.000000000000E+00  1.227320456572E+01 -2.553478182207E+00  6.698539213522E+00 -4.313232332151E+00  2.189426273337E+00  2.222987655909E+01      142
 O   8.333595738637E+00  1.251752534377E+01  2.638932858379E+01  0.000000000000E+00  8.140591808436E+00  4.493074933989E-01 -1.972502594386E+00  9.472258096415E-01 -6.229047913377E-01  1.222762268188E+01      143
 O   6.863725223638E+00  1.683060379138E+01  2.402963837870E+01  0.000000000000E+00  1.721964040551E+00  1.670589821703E+01  1.310843653407E+01  2.385159189310E+01  3.744238887968E+00  4.222443871982E+00      148
 O   1.325373271060E+01  1.525675224432E+01  1.380034311821E+00  0.000000000000E+00  1.323009322848E+01  1.410479861759E+01  2.642748097319E+01 -1.173960453730E+01  1.068597967873E+00  1.522954015775E+01      150
 Ca  5.563337054703E+00  1.136438162438E+01  8.590047487790E+00  0.000000000000E+00  4.132010362818E-02 -7.028003613514E+00 -1.138839978549E+01 -5.312289465439E+00 -7.375687574538E+00  8.440571221419E-02      151
 Ca  1.271753044366E+01  2.195541433975E+01  1.424057218818E+00  0.000000000000E+00 -3.223445491118E+00  1.574494267486E+01 -3.027728191730E+01 -1.466839404775E+00 -6.145520761541E-01 -5.564923290148E+00      152
 H   7.329308358630E+00  1.875524280950E+01  1.554616158839E+01  0.000000000000E+00  2.153835684716E+01 -6.525979736763E+00 -3.869970748416E+00 -5.409364013080E+00 -1.824515253669E+00  5.511531138003E+01      155
 H   1.198354663893E+01  1.344002132901E+01  3.647776275877E+01  0.000000000000E+00 -1.116199605858E+01 -1.864348326111E+01  9.988265149840E+01 -5.060055655772E+01  3.281309823102E+01 -1.251861987287E+01      156
 H   1.810848515867E+01  1.783717405398E+01  1.391599077810E+01  0.000000000000E+00 -6.709106833404E+01  1.907198562285E+00  4.726685780691E+00  1.487935113738E+00  6.150702502909E+00 -6.608587371368E+01      159
 H   1.735536051416E+01  3.907385354784E+00  1.147819422386E+01  0.000000000000E+00 -1.784316224247E+01  3.940960907622E+00 -1.054755980066E+01  1.157682455633E+01 -1.594821444165E+01 -4.017209021524E+00      160
 H   1.668432384112E+01  1.705879528819E+01  2.098037956161E+01  0.000000000000E+00  4.413343332782E+01 -1.911838367672E+01  1.176519568829E+01 -2.351343921804E+01  9.356090739026E+00  4.512398654410E+01      164
 H   1.778348175713E+01  6.282200179060E+00  4.234645399379E+00  0.000000000000E+00 -2.251455338555E+01  5.892844216574E+00 -1.029081107068E+01  3.936128929028E+00 -4.170538455439E+01 -7.953500514794E+00      168
 H   5.546445777076E+00  2.243774890568E+01  3.022111941792E+01  0.000000000000E+00  9.062100860807E+00 -6.377576104191E+00 -1.824437771259E+01 -8.589876366467E+00 -3.348368745711E+00  3.666007959785E+01      169
 Si  1.232943394069E+01  1.010835410732E+00  2.008182832290E+01  0.000000000000E+00 -1.053816523121E+01 -1.956251452113E+02 -6.166567101125E+01 -3.156460326407E+01 -3.786023886453E+01 -1.007204739434E+02      177
 Si  1.071385164918E+01  3.581266642548E+00  1.883019421793E+01  0.000000000000E+00 -2.957045680166E+01 -8.997042451787E+00  5.885883365951E+01 -4.935973328776E+01  3.348902325559E+01 -1.017363482241E+01      178
 Si  8.059415721918E+00  4.208445274017E+00  2.037074101224E+01  0.000000000000E+00  1.916943738399E+01 -3.686866658587E+00 -9.147579789443E+00 -1.784606926279E+01 -3.619119615150E+00  1.000984822570E+01      179
 O   1.121074980664E+01  1.964537016409E+00  1.900892221718E+01  0.000000000000E+00  1.519908971498E+01  1.811937786020E+01  2.956576269778E+01 -1.223897045740E+01  1.743677861693E+01  3.620324163938E+00      180
 O   1.266162964749E+01  1.173868334163E+00  2.168344769849E+01  0.000000000000E+00  4.102206372283E+00  4.262493409304E+00  1.371039803139E+01  2.773432605923E+00  8.005921595451E+00  1.876339567314E+00      182
 O   1.124291230514E+01  3.862731981993E+00  1.734781128232E+01  0.000000000000E+00  1.210074875036E+01  8.493252804036E+00 -3.371271015447E+01  3.811698524191E+01 -2.184881064631E+01  4.111914646158E+00      184
 O   1.137905760238E+01  4.121949557801E+00  2.023149406313E+01  0.000000000000E+00  4.229712720801E+00  4.994304594797E+00 -2.831738763931E+01  2.381244348821E+01 -1.592690999939E+01  1.502121287883E+00      185
 O   8.938230668754E+00  3.733701910230E+00  1.895256264915E+01  0.000000000000E+00  2.074048381025E+01  6.667996036236E-01  3.213000575065E+00  3.880575849804E+00  1.515285336891E+00  8.693003820527E+00      187
 O   6.745380058513E+00  4.810835314761E+00  1.980058279907E+01  0.000000000000E+00 -9.399066941793E+00  7.323260492305E-01  2.802320564792E+00  3.014129901561E+00  9.546545900758E-01 -6.703456703275E+00      188
 Ca  1.144445174127E+01  3.141466236753E+00  2.220445637491E+01  0.000000000000E+00 -2.520394543830E+00 -3.204854604600E+00  4.870380103239E+00  4.918539748983E+00  2.510254208076E+00 -6.077997412257E-02      190
 O   1.569733907218E+01  2.063472726998E+01  8.409544506646E+00  0.000000000000E+00  3.833382130118E+01 -1.660353545885E+01  9.005277651296E+00 -6.766659359341E+00  1.680934046069E+01  5.039121242962E+01      193
 O   4.552889417406E+00  1.225204492558E+01  1.317694437896E+01  0.000000000000E+00 -1.597829755840E+00 -1.115538939521E+00  3.357758700595E+01 -1.199750298657E+00  1.160415249786E+01 -4.064496360995E+00      194
 Si  1.816360016695E+01  1.885984919089E+00  1.966134837111E+01  0.000000000000E+00 -4.074691664906E+01  2.744173438925E+00  1.758861912545E+01 -1.098016591379E+01  1.624876581470E+01 -5.709255778952E+00      196
 Si  1.556643432090E+01  3.460595272111E+00  1.981832633311E+01  0.000000000000E+00 -1.820668765766E+00 -8.833261196820E+00  3.123383368279E+01 -5.137564152272E+01  2.453281939357E+01 -4.629491060400E-01      197
 O   1.919394513731E+01  3.007990580653E+00  2.018530711052E+01  0.000000000000E+00 -3.523232709195E+00 -4.717168337031E-01 -7.557106266394E+00 -1.199452596220E+01 -7.185953737528E+00 -8.900795655874E-01      202
 O   1.667610997863E+01  2.202278256967E+00  2.036551549279E+01  0.000000000000E+00 -1.239210800325E+01  2.368651677516E+00 -2.088124211599E+01  2.210177787261E+01 -1.709840785223E+01 -1.458513895915E+00      205
 O   1.468321572224E+01  3.994452628827E+00  2.104760821260E+01  0.000000000000E+00 -3.767578703066E-01  2.820357715156E+00 -3.172368278465E+00  1.486105600041E+01 -2.213105038472E+00 -1.024939968156E-01      206
 Ca  1.324506952658E+01  4.928909661650E+00  1.901262424653E+01  0.000000000000E+00  7.858555338063E+00  3.389423314914E+00  5.658131498702E+00  1.307425705127E+01  3.941714942613E+00  2.924417214622E+00      209
 O   2.300252311086E+01  1.923178583102E+01  1.434440749528E+01  0.000000000000E+00 -4.342919852168E+01 -3.563327903661E+01  2.364265670609E+01 -2.657778530737E+01  3.791308616009E+01 -3.630997524735E+01      210
 O   1.310301516493E+01  1.735186250355E+01  3.872023775608E+00  0.000000000000E+00 -8.509619707604E+00 -2.691197921411E+01  6.765681226434E+00 -5.942136150295E+00  2.028923527978E+01 -1.126899032515E+01      212
 Si  1.307287482842E+01  3.937197165907E+00  1.412991883175E+01  0.000000000000E+00 -2.060808099371E+01  6.401270663155E+00 -1.928132490154E+01  2.302859528693E+01 -1.783890976059E+01 -6.211943983010E+00      213
 Si  1.148213675619E+01  5.255752372421E+00  1.630818397205E+01  0.000000000000E+00 -9.738683962775E+00  3.734650018250E+00  6.918960619768E+01  1.158832366008E+01  4.871446887220E+01 -4.457716575621E+00      214
 Si  9.438694597854E+00  6.666908343955E+00  1.448230446349E+01  0.000000000000E+00  1.761301084069E+01  1.503226413153E+01 -1.847903756049E+01  3.265409012648E+01 -1.204352473292E+01  1.244073825237E+01      215
 O   1.259494576876E+01  5.112472972466E+00  1.525298234197E+01  0.000000000000E+00  3.606908800344E+01 -5.953758772376E-02 -4.515837892006E+00 -1.776294523462E-01 -3.728892624090E+00  1.464097114388E+01      216
 O   1.349776728533E+01  2.609654515648E+00  1.483235203638E+01  0.000000000000E+00  1.754775236809E+01 -1.615615850779E+00  2.926913251612E+00 -1.397841928282E+01  2.663555573499E+00  2.252593956098E+00      217
 O   1.369290846607E+01  4.779563234897E+00  1.290655656802E+01  0.000000000000E+00  8.344377268017E+00 -4.450816590166E+00  1.243813852607E+01 -1.201882123359E+01  1.319595133127E+01  2.912637509199E+00      218
 O   1.136625908321E+01  3.840940250978E+00  1.366596743085E+01  0.000000000000E+00  2.612828670813E+00 -5.962451818305E-01  2.477186853760E+00 -8.029296824418E-01  2.060325968126E+00  8.681670846875E-01      219
 O   1.185685685331E+01  6.378281253960E+00  1.768312084209E+01  0.000000000000E+00 -3.790290873032E+00 -1.064435782348E+01 -2.951125309511E+01 -2.951037406234E+01 -1.978783647045E+01 -2.038950248080E+00      220
 O   1.017252902869E+01  5.726597660911E+00  1.558378792205E+01  0.000000000000E+00 -1.440856490436E+01  1.742103675536E+00  4.817731448385E+00  4.740786034803E+00  3.144839576635E+00 -8.111262582356E+00      222
 O   1.031365684776E+01  7.092021633133E+00  1.315399519849E+01  0.000000000000E+00 -1.004659085622E+01  2.565961590561E+00  2.303313074348E+01  4.759241890078E+00  1.805959353285E+01 -6.908377963635E+00      223
 O   2.051991198615E+01  2.065771634758E+01  1.212959616473E+01  0.000000000000E+00  3.009020144407E+01 -1.215107979419E+01  2.403251527947E+00 -7.134752379643E+00  4.065634928345E+00  3.029227643339E+01      224
 Ca  1.624909106846E+01  6.396072548217E+00  5.880770899592E+00  0.000000000000E+00 -1.839856525867E+01  2.066795592081E+00  1.983094536635E+00  1.900283538326E+00  5.479465919236E+00 -7.242162511228E+00      225
 Ca  1.679801928866E+01  3.424313025528E+00  1.648868372439E+01  0.000000000000E+00 -1.071796352262E+00  8.000727781279E-01  2.148520718653E+00  4.311167962639E+00  2.188827991202E+00 -6.096536837890E-01      226
 Si  2.073648426563E+01  2.424225344788E+00  1.995391573697E+01  0.000000000000E+00  1.702103511278E+01  8.135752879703E+00  7.820620948553E+01  6.611874967095E+01  8.127336277493E+01  3.947570623727E+00      228
 Si  2.249529402923E+01  5.092417535838E+00  2.074385149593E+01  0.000000000000E+00  2.261003889873E+01 -3.868832230255E+00  1.967103210545E+01 -1.575960350508E+01  2.133189447278E+01  5.118393136994E+00      229
 O   2.110145699453E+01  1.339809380868E+00  2.116493981350E+01  0.000000000000E+00  5.128703092749E+00  3.096949928858E+01 -8.673042587081E+00  1.954488276948E+01 -8.647028376911E+00 -6.509029380851E+00      230
 O   2.142679748401E+01  3.974934435339E+00  2.038886632083E+01  0.000000000000E+00 -2.822436729818E+01 -1.172011504445E+01 -3.809701466420E+01 -6.031184517118E+01 -4.003641031876E+01 -5.307006642643E+00      236
 O   2.303736735593E+01  4.310170497933E+00  2.221054162977E+01  0.000000000000E+00  2.500032803545E+01  2.100113425211E+00  1.293103483270E+01  1.260576731504E+01  1.341241491085E+01  4.651933294717E+00      237
 H   1.272164641223E+01  1.655876654526E+01  4.447039128940E+00  0.000000000000E+00  9.413558525740E+00  2.714203386392E+01 -7.152057584420E+00  7.289427644108E+00 -2.005332982413E+01  1.225288873286E+01      243
 H   1.903592284973E+01  1.858745256160E+01  7.124516607269E+00  0.000000000000E+00 -1.578172738537E+01 -3.648230015563E+00 -2.579226107222E+00 -1.398355974110E+00 -6.891407781826E+00 -1.540992319792E+01      247
 H   1.274199577390E+01  5.659686384454E+00  7.738347670421E+00  0.000000000000E+00 -2.473356851883E+01 -2.936387904617E+01  4.210893337435E+00 -4.014849756262E+01  6.933674654478E+00 -1.098605300684E+01      248
 H   5.509039142642E+00  8.061459784989E+00  7.560158044279E+00  0.000000000000E+00 -4.651868381238E+00 -5.224442918623E+00 -1.880851538616E+01 -4.899561023879E+00 -1.370564568498E+01 -6.807148925506E+00      249