     8448
Lattice="     49.70      0.00      0.00      0.00     49.70      0.00      0.00      0.00     49.70" pbc="T T T" config_type=md Properties=species:S:1:pos:R:3:charge:R:1:forces:R:3:id:I:1
 Si  1.087842047627E+01  1.789334927638E+01  1.560427403994E+01  0.000000000000E+00 -2.669489619701E+00 -2.148211572688E+01  1.462862557669E+01 -1.873393379754E+01  1.019825335070E+01 -4.390904935066E+00        1
 Si  1.275348195996E+01  2.010552341226E+01  1.700940725371E+01  0.000000000000E+00  2.107414874941E+00 -3.084124814484E+01  6.010465898332E+00 -2.609190216796E+01  4.506586694173E+00  3.322283219633E+00        2
 Si  1.081350152051E+01  2.265103408846E+01  1.801824371278E+01  0.000000000000E+00  1.163853658786E+00 -2.651835505372E+01 -8.799619678938E+00 -2.109458589634E+01 -5.281019742819E+00  2.437923446826E+00        3
 O   1.147516202890E+01  1.917774816173E+01  1.647457774669E+01  0.000000000000E+00 -8.207942227128E-01 -1.669182298181E+01 -1.025067395756E+01 -1.433905238137E+01 -7.139979329189E+00 -1.371744020358E+00        4
 O   9.412002631382E+00  1.805891306382E+01  1.490154396946E+01  0.000000000000E+00  6.931428540234E+00  1.244984834617E+01  4.634923597335E+00  1.027315220401E+01  2.927476051057E+00  1.329940824695E+01        5
 O   1.189896497559E+01  1.734859754681E+01  1.447301330333E+01  0.000000000000E+00 -4.464699149949E+00 -1.095477084220E+01  6.693611303821E-01 -9.138983350461E+00  5.503141937006E-01 -6.509496319967E+00        6
 O   1.039235024828E+01  1.674765968701E+01  1.677435461872E+01  0.000000000000E+00  1.765163523434E+01  2.055118920831E+01  4.076385447287E+01  2.058394677580E+01  2.525475720415E+01  2.844626795299E+01        7
 O   1.353854572489E+01  2.068767537048E+01  1.564560565939E+01  0.000000000000E+00  4.229439845876E-01  3.390686315096E+00 -6.601121224424E+00  2.564296860361E+00 -5.712120289747E+00  6.462826976285E-01        8
 O   1.385149620855E+01  1.910516430731E+01  1.795536986525E+01  0.000000000000E+00 -1.997600291255E+01  4.061305934670E+01 -2.929706493895E+01  3.816886838551E+01 -2.260093704385E+01 -2.755260602188E+01        9
 O   1.185562999665E+01  2.128337450044E+01  1.762036851780E+01  0.000000000000E+00 -9.446405484817E+00  3.939220605337E+01  2.629946482746E+01  3.261255339820E+01  1.769524421633E+01 -1.695830467662E+01       11
 O   1.998178823979E+01  1.775402791538E+01  2.143640847050E+01  0.000000000000E+00  5.657890134300E+01 -4.411317432519E+01 -7.729508804557E+00 -5.326273160505E+01 -7.205003969892E+00  5.027094581379E+01       13
 Ca  3.322868537676E+00  1.563442933878E+01  1.726659202874E+01  0.000000000000E+00  2.447230570053E+00 -2.472599248070E+00  4.028543957465E+00 -2.730727264929E+00  7.752729633399E-01  1.151446498391E+01       14
 Ca  2.131980556674E+01  1.328777992640E+01  1.773121990783E+01  0.000000000000E+00  4.016775433780E+00 -6.776096379634E+00  8.346492655159E+00 -9.042026259422E+00  1.003572238668E+01  2.503495062878E+00       15
 O   6.141478560330E+00  4.314009142313E+00  1.602219858064E+01  0.000000000000E+00  1.192411040895E+00  3.349555751488E+00 -3.983025049793E+01  1.250384940934E+01 -1.526735723905E+01  8.341082048734E-01       16
 O   9.753137070538E+00  1.624058771471E+01  2.023610281433E+01  0.000000000000E+00 -5.061615898297E+00  7.892561679144E+00  1.861874555121E+01  9.834292478404E+00  8.973623978319E+00 -8.428428348739E+00       18
 Si  2.055080649095E+01  1.965072188165E+01  1.794012493559E+01  0.000000000000E+00 -2.090185546624E+01  3.991221837314E+01  3.251062248254E+01  3.643785650131E+01  3.724163092163E+01 -1.998639560731E+01       19
 Si  1.809950309185E+01  2.177267472100E+01  1.863595456652E+01  0.000000000000E+00  2.464114216247E+01 -6.695906528492E+01 -1.629724220324E+01 -5.731248523468E+01 -1.582811251193E+01  2.964189515782E+01       20
 O   1.924175735246E+01  2.050871467766E+01  1.875793644683E+01  0.000000000000E+00 -1.601461794802E+01 -5.038753089851E+00 -1.173221876496E+01 -4.608607205095E+00 -1.203482628920E+01 -1.706908699406E+01       22
 O   2.145148596022E+01  2.102243473595E+01  1.804965234989E+01  0.000000000000E+00  1.571833622799E+01 -1.737043344115E+01 -2.777341567095E+01 -1.491408053909E+01 -3.300789537568E+01  1.540395374584E+01       23
 O   2.034645520083E+01  1.899772793507E+01  1.648610010622E+01  0.000000000000E+00  2.868160706878E+00  2.138842833638E+01  9.881765393457E+00  1.856073378213E+01  1.219566153230E+01  2.678035866469E+00       24
 O   2.108451898008E+01  1.875430584002E+01  1.926969045779E+01  0.000000000000E+00 -1.423585269762E+00  5.751476812257E+01 -5.778399408731E+01  5.909532391802E+01 -6.322611786356E+01 -1.266253859701E+00       25
 O   1.828016373592E+01  2.269427597814E+01  1.994104240875E+01  0.000000000000E+00  1.312481183045E+01  1.798788840231E+01  2.310639119608E+01  1.580562630947E+01  2.118187232906E+01  1.629406093646E+01       26
 O   2.235152076203E+01  1.707420665523E+01  2.054471440527E+01  0.000000000000E+00 -1.371069189168E+00 -1.807052701267E+00  8.580721027599E+00 -2.174354710146E+00  9.335353143303E+00 -1.047352389294E+00       27
 O   1.842872839884E+01  2.229924494842E+01  1.704810115486E+01  0.000000000000E+00 -8.015295206468E-01  2.124944112776E+01  1.716525097751E+00  1.624551067394E+01  1.855536550898E+00 -9.698717528126E-01       29
 Ca  4.645320744922E+00  1.131600134315E+01  1.453612133816E+01  0.000000000000E+00  2.652000501933E-01 -1.305977034374E+01  8.826128151282E+00 -1.677610320187E+01  2.860262101288E+00  3.129247147954E+00       32
 Si  1.299215774843E+01  1.885859578112E+01  1.205430167868E+01  0.000000000000E+00  1.736154760039E+01  1.675307871159E+00 -2.513594110899E+01  1.070846775551E+00 -2.709158280157E+01  2.520092617949E+01       37
 Si  1.275285567318E+01  2.119764760702E+01  1.418788117533E+01  0.000000000000E+00  4.009390319189E+00 -1.694617902156E+01  3.696770935632E-02 -1.134231395819E+01  3.322863055896E-02  6.664361714990E+00       38
 O   1.271116267168E+01  1.988903144423E+01  1.321482255772E+01  0.000000000000E+00 -7.524789439400E+00  2.748780024709E+01  3.250243678501E+01  1.826365470766E+01  3.126366316277E+01 -1.177396416340E+01       40
 O   1.357639876267E+01  1.748263831866E+01  1.261909158458E+01  0.000000000000E+00  7.035657764277E+00 -9.027344236210E+00  3.800481174991E-01 -6.516000709157E+00  4.088792570832E-01  9.059976962735E+00       41
 O   1.370053550032E+01  1.958723930861E+01  1.067546086322E+01  0.000000000000E+00 -5.277688316958E-01  5.535114211006E+00  6.427332447511E+00  3.016754643268E+00  8.248627155090E+00 -7.545350622106E-01       42
 O   1.153505847624E+01  1.856199051645E+01  1.152680982002E+01  0.000000000000E+00 -2.640880406474E+01 -1.263259238728E+01 -1.184106850664E+01 -7.844713090063E+00 -1.184954204831E+01 -4.249653104145E+01       43
 O   1.342440498469E+01  2.213377212212E+01  1.299517195926E+01  0.000000000000E+00  2.438894833426E+01  2.820682757747E+01  1.987591884519E+01  1.656078199288E+01  2.053242426164E+01  4.021179525980E+01       44
 O   1.132982934324E+01  2.179083378119E+01  1.477374904847E+01  0.000000000000E+00  1.155267647478E+00 -6.996416945724E+00 -1.615589315669E+01 -4.743430620070E+00 -1.238978080326E+01  2.221943907214E+00       46
 O   8.657121273083E+00  2.081979503614E+01  1.499488624390E+01  0.000000000000E+00  1.266071140750E+01  5.655389489424E+00  1.711092406377E+01  4.073139140498E+00  9.878790829431E+00  3.044816032962E+01       47
 O   1.665233367909E+01  1.537513281051E+01  9.978606018989E+00  0.000000000000E+00 -1.237289882394E+01  1.548886535603E+00 -6.063439695682E+00  1.005241951232E+00 -1.011869001175E+01 -1.142392209616E+01       48
 Ca  7.678935270252E+00  2.125126778577E+01  1.320923081735E+01  0.000000000000E+00 -1.181259321185E+01 -1.813861559151E+00  1.916915875142E+00 -1.127448783154E+00  1.114362609547E+00 -3.269106624221E+01       49
 Si  2.079374151172E+01  2.089075319259E+01  2.308922170468E+01  0.000000000000E+00 -3.022246408107E+01 -1.213650121917E+00  2.585448813796E+01 -1.341370341151E+00  2.328409117185E+01 -3.036346477779E+01       51
 Si  1.934090305133E+01  2.280400964636E+01  2.124129742452E+01  0.000000000000E+00  3.825421216273E+01  2.735055142056E+01 -2.424095775156E+00  2.547627397367E+01 -2.207219287854E+00  4.510386205119E+01       52
 O   1.951354466680E+01  2.167499050165E+01  2.239307346422E+01  0.000000000000E+00 -1.753953351467E+01 -2.085443433498E+01  5.044892068393E+00 -2.154533263035E+01  4.396168613169E+00 -1.948232516569E+01       54
 O   2.009908277785E+01  1.952118668365E+01  2.398397033824E+01  0.000000000000E+00 -6.377972509941E+00  1.011134418651E+01 -8.484340714873E+00  1.242292197595E+01 -7.110059924974E+00 -6.194590738586E+00       55
 O   2.186560098292E+01  2.011874576709E+01  2.219729653666E+01  0.000000000000E+00  1.541929842818E+01  5.331549745990E+00 -3.014406473460E+00  5.882374183846E+00 -2.969362013980E+00  1.418744196539E+01       56
 O   2.133303979983E+01  2.182797603359E+01  2.431517207387E+01  0.000000000000E+00  1.635091969226E+01 -2.852375927128E+00 -9.469182418275E+00 -3.177390857529E+00 -8.307835321386E+00  1.673026847176E+01       57
 O   1.662428822253E+01  2.124598153321E+01  1.846178614827E+01  0.000000000000E+00 -8.721845161949E+00  9.578643502732E-01  3.584521639203E+00  8.323403070907E-01  3.227754909057E+00 -1.114659218884E+01       58
 O   1.599243211117E+01  1.640891471647E+01  1.303735359997E+01  0.000000000000E+00  4.203531447845E+00 -5.050402728101E-01 -1.949072091440E+00 -4.012689889990E-01 -2.390853547318E+00  4.313001834633E+00       59
 H   3.238953627526E+00  8.298946790864E+00  1.629581319221E+01  0.000000000000E+00  1.790013217879E+00 -1.348998684103E+01 -2.908645739783E+01 -2.648894023139E+01 -5.659446122711E+00  1.484122880221E+00       70
 H   1.387893147109E+01  1.815493184149E+01  1.817265951704E+01  0.000000000000E+00 -7.011984018117E+00  5.768737834047E+00 -1.058492608346E+00  5.774370810999E+00 -8.083982622422E-01 -9.172326571946E+00       73
 H   1.872710433117E+01  1.105925319483E+01  1.774968765906E+01  0.000000000000E+00  3.490687528781E+00  1.997256296224E+01  8.683664608273E-01  3.205521639529E+01  9.161845336079E-01  2.061418387069E+00       83
 Si  2.167060991295E+00  2.053188742873E+01  2.147384337267E+01  0.000000000000E+00  4.344932930843E+00  1.572639332298E+01 -3.162048035808E+01  1.644788420972E+01 -1.598315347726E+00 -3.810848714948E+01       89
 Si  2.869138361762E+00  2.030856773670E+01  1.842782790336E+01  0.000000000000E+00 -8.122468391196E+00 -2.592114230370E+00  1.510643180559E+01 -2.352063206151E+00  2.010820150361E+00 -2.064001653959E+01       90
 O   2.217814543308E+00  1.965363463051E+01  1.991245825885E+01  0.000000000000E+00  4.923364379247E+00  1.911709728360E+01 -8.380218688440E+00  1.936885511747E+01 -1.327314838953E-01 -6.503296004852E-01       92
 O   9.723804251424E-01  1.987066446425E+01  2.234742207267E+01  0.000000000000E+00  2.391200799473E+01 -2.317679764415E+00 -1.695055016380E+00 -2.606564466822E+00  4.282022404114E+00  8.150529656315E+00       95
 O   2.188432448244E+00  1.979502632215E+01  1.703718942130E+01  0.000000000000E+00  1.505720934068E+00  1.557118794793E+01  1.580783973357E+01  1.340181489360E+01  2.496988173463E+00 -1.164984207547E+01       96
 O   4.451387581297E+00  2.010834197388E+01  1.858156712675E+01  0.000000000000E+00  1.001013621209E+00 -8.619554789018E+00 -8.305048266798E+00 -7.965094094925E+00 -1.990474139144E+00  4.181030321903E+00       97
 O   1.149238463210E+01  1.447908056980E+01  2.093404580609E+01  0.000000000000E+00 -1.980288354995E+01 -2.414492001126E+01  1.349807574241E+01 -3.490904405591E+01  7.410181465252E+00 -2.494935173271E+01       98
 O   3.172946673391E+00  1.262271586350E+01  2.077942745679E+01  0.000000000000E+00  2.214421279893E+00 -9.059791091147E+00 -7.551701938415E+00 -1.491416536568E+01 -1.015467057320E+00  1.391764128136E+00      101
 Ca  2.191763509771E+01  2.302919590938E+01  1.862836391946E+01  0.000000000000E+00  8.024490693798E+00  8.507818840515E+00 -1.003802207492E+00  6.881992152294E+00 -1.181046848194E+00  8.431455649142E+00      102
 O   1.566112759296E+01  4.351663987384E+00  1.146298878848E+01  0.000000000000E+00  7.304232718548E+00 -7.903289895988E-01  2.848416764107E+01 -2.081854751020E+00  3.891604467542E+01  2.029583520605E+00      105
 Si  5.583972059335E+00  1.581200968844E+01  2.021165223347E+01  0.000000000000E+00 -3.609049381339E-01 -3.897906048457E+01 -4.159092225792E+01 -4.982486290012E+01 -1.149052759900E+01 -1.021966499427E+00      107
 Si  8.519306910756E+00  1.667551898023E+01  2.116137968015E+01  0.000000000000E+00 -4.236115091671E+00 -1.323965587310E+01 -6.721126881029E+00 -1.680123929561E+01 -2.705841658298E+00 -8.291685973233E+00      108
 Si  7.671201134156E+00  1.949725310141E+01  2.048199357419E+01  0.000000000000E+00  4.829200593147E-01  5.041082196446E+01 -2.382014075175E+01  5.295690250187E+01 -8.921450448105E+00  1.227397699467E+00      109
 O   7.115186805306E+00  1.587757010509E+01  2.070126691872E+01  0.000000000000E+00  1.883070569541E+00  1.159590347730E+01 -1.112347163015E+01  1.511880542541E+01 -3.823223906189E+00  4.202080113824E+00      110
 O   5.282762642910E+00  1.613615614533E+01  1.855842707443E+01  0.000000000000E+00  9.989512726266E-01  2.477145074681E+00  4.156263365639E+01  2.849000456318E+00  1.183104190567E+01  3.051288654490E+00      111
 O   4.626798506753E+00  1.632926916295E+01  2.137539870997E+01  0.000000000000E+00 -2.170679373271E+00 -7.992323445104E-01 -8.901250187641E+00 -1.046214001089E+00 -1.926714520520E+00 -7.660936109680E+00      112
 O   5.417155238509E+00  1.398436100078E+01  2.017873390968E+01  0.000000000000E+00 -2.236424227966E+00  6.817656221633E+00  1.831038064250E+01  9.837537144261E+00  4.915579682086E+00 -5.773318721318E+00      113
 O   8.624834885632E+00  1.602278893729E+01  2.269099815036E+01  0.000000000000E+00  5.246356231216E+00  1.245648694145E+01 -3.286633736769E+01  1.764050710864E+01 -1.249247526325E+01  9.746419461623E+00      114
 O   1.105117134834E+01  1.393564587857E+01  3.627474910160E+01  0.000000000000E+00 -2.116237616624E+01 -8.905342018204E-02 -5.877252716704E+01 -2.318077326227E-01 -1.790516225154E+01 -2.668598385690E+01      115
 O   8.024326230101E+00  1.828050211935E+01  2.144034582678E+01  0.000000000000E+00  9.751561616998E+00 -3.874072420152E+01  7.118353647618E+00 -4.543718323695E+01  2.664135753743E+00  2.221537830027E+01      117
 O   6.342459238969E+00  2.015731380179E+01  2.116227687254E+01  0.000000000000E+00 -5.249232005639E+00  1.952238975062E+00 -3.060052535142E-01  2.049569804681E+00 -9.171157995019E-02 -1.668286902121E+01      118
 O   6.255240811740E+00  9.218249950422E+00  2.253182685850E+01  0.000000000000E+00 -9.039879187927E+00  1.956390861879E+01  3.351240080939E+00  4.781933708077E+01  9.303645841004E-01 -1.332192770573E+01      119
 Ca  2.405491627348E+01  1.888929826619E+01  2.108431067625E+01  0.000000000000E+00 -1.243560216828E+01  6.010653935823E+00 -1.793364742986E+01  6.709116091262E+00 -2.046035054347E+01 -9.765147207569E+00      120
 Ca  3.239314341360E+00  1.182664911740E+01  1.841622534773E+01  0.000000000000E+00 -4.826541906243E+00  1.397362310790E+01  2.535850407024E+00  2.175945100973E+01  1.587199884608E+00 -7.068174098977E+00      121
 Si  7.418251955514E-01  1.712566131804E+01  1.440304020098E+01  0.000000000000E+00 -1.683347291604E+02  1.627768634174E+01 -5.885563616793E+01  1.368987546846E+01 -1.922442943042E+02  1.151605000008E+01      125
 Si  2.489764308946E+00  1.885623488812E+01  1.569505159156E+01  0.000000000000E+00 -4.560319944841E+00  4.898349260618E+00  2.648391480853E+01  4.077157757900E+00  2.762678008738E+00 -1.902276711728E+01      126
 Si  3.514701547525E+00  2.020206074283E+01  1.297793759579E+01  0.000000000000E+00 -1.911497911526E+01  6.983802601032E+01  9.591786407765E+00  4.486441036452E+01  2.828199600416E+00 -1.139148293903E+02      127
 O   8.814785717357E-01  1.836113358948E+01  1.536631669228E+01  0.000000000000E+00  2.004866697716E+01  2.814309528163E+01  3.061849436293E+01  2.355277862835E+01  2.871148819605E+01  7.467497931705E+00      128
 O   2.141026728787E+00  1.705817740378E+01  1.347111865467E+01  0.000000000000E+00  3.563351253429E+01 -8.003145255670E+00 -7.072009372497E-01 -6.320213279394E+00  6.987255926447E+00  4.725538278249E+00      129
 O   9.408136354027E-01  1.586964113872E+01  1.536120574774E+01  0.000000000000E+00  2.203879409925E+00 -1.638506676897E+01  2.910149897155E+01 -1.586011804731E+01  7.928421294113E+00 -2.196545817132E+01      131
 O   3.738892250229E+00  1.805879906778E+01  1.626037092660E+01  0.000000000000E+00  2.289693309016E+00 -3.317904685485E+01 -8.731317209471E+00 -2.987483313957E+01 -2.010226292449E+00  1.107551352917E+01      132
 O   2.511629153302E+00  4.202559655026E+00  8.579267467574E+00  0.000000000000E+00  1.793681674327E+01  2.885424791779E-01 -6.725411838897E+00  5.890417526052E-01 -2.678804930149E+00  1.413160925198E+01      133
 O   2.779415280571E+00  1.970237773047E+01  1.442114245680E+01  0.000000000000E+00  1.007604340465E+01  2.420826747301E+01 -3.507277725455E+01  1.771922549839E+01 -5.413558450950E+00  3.449496562083E+01      134
 O   1.886299053381E+00  2.009966931782E+01  1.186108680621E+01  0.000000000000E+00  2.270871506964E+01  2.124207287410E+01  2.050040099237E+01  1.253523460110E+01  3.042281449122E+00  3.956613472251E+01      135
 O   8.332389046441E+00  1.560980547395E+01  1.233134173986E+01  0.000000000000E+00  8.584496070526E+00  1.448301104891E+01  4.838798610654E+00  1.144120334903E+01  3.269616023294E+00  1.608209998428E+01      136
 Si  8.996747759089E+00  1.394000478098E+01  2.588956776960E+01  0.000000000000E+00 -1.896406785063E+01 -8.599730574092E-01 -7.362453854175E+01 -1.597153738441E+00 -2.558487681348E+01 -2.938386221149E+01      139
 Si  8.920612452318E+00  1.651775823599E+01  2.418987749653E+01  0.000000000000E+00  1.443344381468E+01  3.815181464600E+01  1.218735926980E+00  5.587245613911E+01  4.494388567227E-01  2.672553445383E+01      140
 O   8.420773987829E+00  1.519585566537E+01  2.485860953340E+01  0.000000000000E+00  7.432862325867E+00 -5.163927822724E+01  7.228368005718E+01 -8.447570721295E+01  2.448586402036E+01  1.341310231668E+01      142
 O   7.736146023459E+00  1.283367406300E+01  2.570650895654E+01  0.000000000000E+00  8.948940643099E+00  1.068012147584E+01 -2.819926509184E-01  2.139283240542E+01 -8.486318888088E-02  1.484560749945E+01      143
 O   7.877067128461E+00  1.766718033237E+01  2.472096599614E+01  0.000000000000E+00 -2.841778653479E+00  3.469230324456E+00 -2.236801180848E+01  4.854352719009E+00 -7.127323850254E+00 -6.373719446201E+00      148
 O   1.355495968021E+01  1.621030561788E+01  1.398192031465E+00  0.000000000000E+00 -1.380090647808E+01 -2.774912015191E+01  3.108268896070E+01 -9.795336340000E+00 -1.604275923632E+00 -1.650443211130E+01      150
 Ca  5.118295559491E+00  1.144498090656E+01  7.621427895070E+00  0.000000000000E+00  1.437365429501E+00 -2.567537077706E+00  4.585256740976E+00 -1.709771197123E+00  3.079304762779E+00  3.214081661596E+00      151
 Ca  1.275658483937E+01  2.181855340372E+01  1.550181949844E+00  0.000000000000E+00 -7.165637896308E+00  9.907864754818E+00 -3.612212380837E+01  4.347726066895E+00 -1.379381325172E+01 -1.225593331452E+01      152
 H   7.680388696045E+00  1.739432042766E+01  1.522662436451E+01  0.000000000000E+00 -1.070457433954E+01  1.654646682707E+01  3.234678219782E+01  1.448443105228E+01  1.631588554352E+01 -2.424340791495E+01      155
 H   1.018638219357E+01  1.428111481102E+01  3.581225061814E+01  0.000000000000E+00  1.744082897851E+01 -8.183479909182E+00  4.492686655874E+01 -2.052142548494E+01  1.277892971337E+01  2.445171173714E+01      156
 H   1.638281090116E+01  1.607568613777E+01  1.387618980558E+01  0.000000000000E+00 -1.168304655118E+01 -7.882327635840E+00 -1.422523967932E+01 -6.803857294008E+00 -1.679491380237E+01 -1.146402718208E+01      159
 H   1.593974253515E+01  4.121283113415E+00  1.248315753464E+01  0.000000000000E+00 -8.070007752802E+00  2.320254986426E+00 -3.200234421335E+01  7.082662414782E+00 -4.086378993989E+01 -2.072028122809E+00      160
 H   1.696064140811E+01  1.520209632349E+01  1.895163650042E+01  0.000000000000E+00  7.640422196245E+01 -6.042548260879E+01  2.146220745301E+01 -7.532920180191E+01  1.920746023326E+01  6.848233588849E+01      164
 H   2.023347631840E+01  6.669092056708E+00  6.426751247752E+00  0.000000000000E+00 -5.355759304454E+00 -9.076618222223E+00  1.962402598695E+01 -8.746792965073E+00  6.178273435079E+01 -1.765294864457E+00      168
 H   4.642435552021E+00  2.023383686930E+01  3.285859213770E+01  0.000000000000E+00  1.238129950187E+00  1.047612260614E+01  9.259501383129E+00  1.701262306913E+01  1.308231291069E+00  5.396331118515E+00      169
 Si  1.237726503377E+01  1.030621009949E+00  1.977925446059E+01  0.000000000000E+00  2.343732922205E+01 -1.491801410315E+02  6.549473247570E+01 -8.664837807828E+01  4.098464195313E+01 -6.414042287593E+01      177
 Si  1.110215604460E+01  3.500365088015E+00  1.914549591120E+01  0.000000000000E+00  1.157289314939E+01 -1.221070924146E+00 -1.560960423091E+01 -8.856529318559E+00 -9.051751010770E+00  3.517746725720E+00      178
 Si  8.285578379800E+00  3.963063050052E+00  2.020802964351E+01  0.000000000000E+00 -3.621008837222E+01  2.451281058736E+00  5.159934321811E+01  1.365390194582E+01  2.115646157107E+01 -1.728638298514E+01      179
 O   1.137326569528E+01  1.786286974258E+00  1.892843281264E+01  0.000000000000E+00 -2.457251455925E+01  3.533745046261E+01 -5.108143469604E+01  8.523588752408E+01 -3.069259534822E+01 -4.420332632986E+00      180
 O   1.159836450757E+01  8.502346094515E-01  2.135850326848E+01  0.000000000000E+00  3.551559003858E+01  9.950954225725E+00 -2.650843397663E+01 -2.587260720987E+01 -1.439494499783E+01  8.128063597115E+00      182
 O   1.140421935106E+01  4.429299907761E+00  1.785317032301E+01  0.000000000000E+00 -1.564890945207E+01  3.508959421093E+00 -9.110975907589E-01  1.414588386293E+01 -5.819894498989E-01 -6.078043333885E+00      184
 O   1.206453194894E+01  3.969697387080E+00  2.031406213790E+01  0.000000000000E+00 -9.958336711439E-01  2.804762338908E+00  1.916859453025E+01  1.258435459745E+01  1.138423814777E+01 -3.401365152161E-01      185
 O   9.501466587853E+00  3.426935748171E+00  1.941438060676E+01  0.000000000000E+00  1.126923866290E+01 -2.605896346380E+00 -2.490491384041E+01 -1.630173988462E+01 -1.218855298662E+01  4.010517869454E+00      187
 O   6.967301794185E+00  4.655459717149E+00  1.959568073292E+01  0.000000000000E+00  2.916265792020E-01 -2.450373479216E+00 -1.130768312622E+01 -1.017570400068E+01 -4.020479921425E+00  1.869425590946E-01      188
 Ca  1.116535216587E+01  4.682152678435E+00  2.252302377460E+01  0.000000000000E+00  2.438476327186E+00 -1.704735134545E+00  5.908425125348E-02 -8.200456627907E+00  2.928987152452E-02  1.022566802822E+00      190
 O   1.592832390437E+01  2.018633437869E+01  8.759774222340E+00  0.000000000000E+00  1.176790724004E+01  1.370585006220E+01 -1.203309319876E+01  5.947595527640E+00 -2.188035914814E+01  1.491374182939E+01      193
 O   4.621820581641E+00  1.243353300523E+01  1.273419631137E+01  0.000000000000E+00  5.317308984729E+00  3.754817854486E+00 -1.303095991092E+01  3.845615534406E+00 -4.729529625758E+00  1.430452255617E+01      194
 Si  1.818741105077E+01  1.405658787098E+00  1.959077822355E+01  0.000000000000E+00 -3.255115597175E+01 -1.489337344346E+02  2.142043316318E+01 -2.725729592409E+01  1.988600036093E+01 -3.650096130454E+01      196
 Si  1.621977045456E+01  3.907208099975E+00  1.959403635624E+01  0.000000000000E+00  1.926900611502E+01 -4.744427726797E+00  7.742547048402E+01 -2.450204491631E+01  6.409212148817E+01  4.497502633229E+00      197
 O   1.987200088052E+01  1.210951932955E+00  1.981607390693E+01  0.000000000000E+00 -1.844299771967E+01  6.814800490495E+01  2.627369603132E+00  3.094634659433E+01  2.634784837406E+00  1.205215809729E+01      202
 O   1.735940875522E+01  2.679564267183E+00  2.032264684075E+01  0.000000000000E+00  2.729718996824E+00 -5.429412426097E-01 -3.815493581477E+01 -5.800386162362E+00 -3.259157786030E+01  9.495104795173E-01      205
 O   1.528585420331E+01  4.522065333445E+00  2.083971818902E+01  0.000000000000E+00  2.200563583739E+01  6.276994381810E-01 -4.248432581566E+01  2.892722336927E+00 -3.116209175450E+01  6.510000791391E+00      206
 Ca  1.401713434133E+01  5.389966383670E+00  1.839673370118E+01  0.000000000000E+00 -1.227926766781E+01 -2.959358329918E+00  3.491105904791E+00 -1.010071737865E+01  2.659999392399E+00 -4.721709754214E+00      209
 O   2.321318005362E+01  1.927613297982E+01  1.465003673519E+01  0.000000000000E+00  5.154474026639E+01 -4.318030068703E+00  1.370889011569E+01 -3.281742204018E+00  2.172192058922E+01  4.280254861635E+01      210
 O   1.423673480873E+01  1.790944670057E+01  4.486324675135E+00  0.000000000000E+00 -1.807089601420E+01 -2.016712025277E+01  4.044579938962E+00 -5.051872943318E+00  1.283491859670E+01 -2.273272301171E+01      212
 Si  1.310363198334E+01  3.732458975370E+00  1.462700731761E+01  0.000000000000E+00 -2.918878243984E+01  6.813657675056E+00  1.133883140635E+01  2.670194760755E+01  1.015791341617E+01 -8.314174787458E+00      213
 Si  1.091807900830E+01  5.579486663745E+00  1.655373034304E+01  0.000000000000E+00  5.699802921305E+01 -2.937615350956E+01  5.718228360086E+00 -8.715585375851E+01  3.771480369025E+00  2.912781118476E+01      214
 Si  9.231490478029E+00  6.106419881750E+00  1.432986976662E+01  0.000000000000E+00  1.101206838278E+00  1.884735971044E+01  4.718148596172E+01  4.422889603486E+01  3.039493348430E+01  7.284231454482E-01      215
 O   1.202756711886E+01  4.698500646801E+00  1.562344031011E+01  0.000000000000E+00  1.925296854692E+01  1.229419106211E+00 -3.021400171108E+01  4.088060738074E+00 -2.325998155952E+01  7.521062595334E+00      216
 O   1.435631707853E+01  3.513936381551E+00  1.568202551357E+01  0.000000000000E+00 -8.804116117380E+00  2.644627208194E+00 -1.886171026484E+01  1.002534481772E+01 -1.726720141930E+01 -1.883713420424E+00      217
 O   1.309951889938E+01  4.314480537938E+00  1.306395855436E+01  0.000000000000E+00  1.295639500973E+01 -1.428313319264E+00  2.276923116807E+01 -4.324837217699E+00  2.283120945074E+01  4.267341002422E+00      218
 O   1.239325801903E+01  2.279471001811E+00  1.455318618995E+01  0.000000000000E+00 -7.212421066230E+00 -4.599309406174E-01  1.177313755708E+01 -1.005421829725E+01  1.002581355958E+01 -3.009834692558E-01      219
 O   1.160849123176E+01  6.857410102201E+00  1.713126597351E+01  0.000000000000E+00  3.427190102653E+00  9.760101306470E+00  1.300012003875E+01  2.438280472039E+01  8.809143452385E+00  2.024522184915E+00      220
 O   9.609716735746E+00  5.284331331286E+00  1.578303714839E+01  0.000000000000E+00 -3.212326164333E+01  1.018230323344E+00 -1.175452264065E+01  3.041211084515E+00 -7.156900910676E+00 -1.766440808120E+01      222
 O   1.047384868124E+01  6.398290761276E+00  1.351132591777E+01  0.000000000000E+00  2.445294104607E+01  1.845329945246E+00 -2.449059575856E+01  3.896799199394E+00 -1.898487207324E+01  1.493787351171E+01      223
 O   2.082761329255E+01  1.990788435747E+01  1.244474787295E+01  0.000000000000E+00  1.800936218909E+01  9.402076739450E+00 -9.909843575979E+00  5.877393720176E+00 -1.658518050324E+01  1.721408472379E+01      224
 Ca  1.554026714835E+01  6.726611691383E+00  5.726877397907E+00  0.000000000000E+00 -1.443286160923E+00 -1.882566012047E+00  3.922211949506E+00 -1.602771980768E+00  1.064318602841E+01 -6.247270700944E-01      225
 Ca  1.627935008491E+01  4.101793684989E+00  1.622756442708E+01  0.000000000000E+00  1.518552238420E+01 -1.308778031374E+00 -2.075277066497E+00 -2.330727822140E+00 -2.081899723184E+00  3.999622720753E+00      226
 Si  2.110851015363E+01  2.258795762135E+00  1.959220749315E+01  0.000000000000E+00  1.887833054688E+01 -5.285532597997E-01 -5.242443373961E+01  5.238218887804E+01 -5.648172582274E+01  5.452307042616E+00      228
 Si  2.242876226143E+01  4.828346957293E+00  2.077968902488E+01  0.000000000000E+00 -2.062110819397E+00  1.114795166932E+00  1.395286443235E+01  4.797728311613E+00  1.506016181687E+01 -4.439204617885E-01      229
 O   2.224333901503E+01  1.588474679112E+00  2.050510356358E+01  0.000000000000E+00  1.232060411808E+01  3.875935631421E+01  8.501492573556E+00  1.962125447431E+01  9.222171488237E+00 -7.966508637867E-01      230
 O   2.107668847275E+01  3.982759311928E+00  2.032449495326E+01  0.000000000000E+00 -1.062400062907E+01 -5.694879976794E+00 -1.223984704037E+01 -2.881359701946E+01 -1.269283412047E+01 -1.995649711430E+00      236
 O   2.231061569850E+01  4.963043025216E+00  2.259577819312E+01  0.000000000000E+00  3.950972615943E+01  2.588210222036E+00 -2.778167268173E+01  1.180419899011E+01 -2.743106333255E+01  8.789670940079E+00      237
 H   1.368274485973E+01  1.762333806192E+01  5.287502546802E+00  0.000000000000E+00  1.241114758576E+01  3.856208155489E+00 -6.582914852885E+00  1.156972099810E+00 -1.703495054008E+01  1.598552424111E+01      243
 H   1.766327519756E+01  1.638394672340E+01  7.007939214962E+00  0.000000000000E+00 -3.407520605240E+01 -3.199838423031E+01 -7.066017019316E+00 -1.368673467076E+01 -1.780965835096E+01 -3.160718237741E+01      247
 H   1.207412540539E+01  7.190165821853E+00  6.870306061579E+00  0.000000000000E+00 -3.077206368960E+00 -1.107023225962E+01 -6.189266308108E+00 -1.057776491958E+01 -1.087724140695E+01 -1.832482545776E+00      248
 H   5.846872355872E+00  8.573875706148E+00  9.005252479172E+00  0.000000000000E+00 -1.041565166786E+01  1.658958431635E+00  1.657768075956E+01  1.742425484266E+00  1.076344984016E+01 -1.527355094541E+01      249