     8448
Lattice="     49.70      0.00      0.00      0.00     49.70      0.00      0.00      0.00     49.70" pbc="T T T" config_type=md Properties=species:S:1:pos:R:3:charge:R:1:forces:R:3:id:I:1
 Si  1.071758748425E+01  1.775387190647E+01  1.554746387205E+01  0.000000000000E+00 -2.613528986432E+00 -2.490746105592E+00  3.241766747768E+01 -2.181202235497E+00  2.234700077690E+01 -4.329356668854E+00        1
 Si  1.226546091900E+01  2.032720460920E+01  1.687640464667E+01  0.000000000000E+00 -3.599277548594E+01 -9.077985803725E+00 -2.053221514831E+01 -7.536882948038E+00 -1.492243684331E+01 -5.964981802047E+01        2
 Si  1.079015564249E+01  2.243096410975E+01  1.760650610559E+01  0.000000000000E+00 -8.410654205254E+00  5.195489833213E+01  6.258079717276E+00  4.078042433774E+01  3.835267131796E+00 -1.748437083471E+01        3
 O   1.093001977388E+01  1.925686521127E+01  1.654358835343E+01  0.000000000000E+00  1.687302961793E+01 -9.464229684227E+00 -2.291670357019E+01 -8.130727315190E+00 -1.514061023662E+01  2.972745372653E+01        4
 O   9.305485617741E+00  1.804276392185E+01  1.487008784406E+01  0.000000000000E+00 -3.781729064616E+00  3.908204638052E+00 -6.559009639345E-01  3.220978034859E+00 -4.104533241875E-01 -7.332539915935E+00        5
 O   1.171372219247E+01  1.696066318680E+01  1.459613140726E+01  0.000000000000E+00  3.639033863839E+00  2.474719865455E+01 -9.172022331988E+00  2.129712497355E+01 -7.360753239494E+00  5.269070469298E+00        6
 O   1.063919206796E+01  1.655526249009E+01  1.672453249171E+01  0.000000000000E+00  6.002696043973E+00  2.217608905106E+00 -1.767197198757E+01  2.240282943840E+00 -1.124189894627E+01  9.340578497069E+00        7
 O   1.280459358103E+01  2.133106565174E+01  1.561222837775E+01  0.000000000000E+00 -6.742618964674E+00 -2.137700728135E+01  1.757633966625E+01 -1.564585310261E+01  1.441548769484E+01 -1.123247269739E+01        8
 O   1.350330883160E+01  1.969454849246E+01  1.756427462059E+01  0.000000000000E+00  2.823354613471E+01 -2.389889836057E+01  9.394547533557E+00 -2.131385820271E+01  7.222471717112E+00  4.117856966752E+01        9
 O   1.155021950389E+01  2.110173899134E+01  1.819954472063E+01  0.000000000000E+00  3.493392180011E+00  1.845913431919E+01 -2.933536169130E+01  1.592038649915E+01 -1.861749136925E+01  6.382272644441E+00       11
 O   1.905343918846E+01  1.776000855980E+01  2.111536976542E+01  0.000000000000E+00 -1.209808421921E+01 -2.984223654914E+00 -3.804749592447E+01 -3.548026777356E+00 -3.433213142481E+01 -1.127681344901E+01       13
 Ca  1.917487372846E+00  1.635311529053E+01  1.747355986610E+01  0.000000000000E+00 -9.373770604670E+00  1.818579566773E+00 -5.994261542919E-01  1.943180755882E+00  4.714194304915E+00  1.093182910087E+01       14
 Ca  2.068691538020E+01  1.416280592344E+01  1.843917434092E+01  0.000000000000E+00  1.872029821210E+01 -3.683803617609E+00  2.612048257480E+01 -4.796104494406E+00  2.930457745691E+01  1.281640812727E+01       15
 O   6.633755826913E+00  3.960392566572E+00  1.563622196145E+01  0.000000000000E+00 -7.006124397241E+00  2.641732410152E+00  9.274518410680E+01  1.175157177409E+01  3.934767023668E+01 -4.314794356940E+00       16
 O   9.415269356899E+00  1.623274760874E+01  1.923037473208E+01  0.000000000000E+00 -2.880656188025E+01  2.983139066021E+01 -3.075951509283E+00  3.534021688762E+01 -1.505998317357E+00 -4.966503142419E+01       18
 Si  2.016620186569E+01  1.993686060367E+01  1.806379917338E+01  0.000000000000E+00 -3.049301777234E+01  2.904432242036E+01  6.882390071207E+00  2.631561797807E+01  7.683415108983E+00 -3.014623421710E+01       19
 Si  1.766958681089E+01  2.140718566362E+01  1.857110932870E+01  0.000000000000E+00 -4.529084207295E+01  4.340476431207E+00  4.481182456638E+01  3.765439493506E+00  4.263646346134E+01 -5.487108869575E+01       20
 O   1.853333438994E+01  2.012116825271E+01  1.864010661471E+01  0.000000000000E+00  4.506294456535E+01 -6.653890766285E+01 -2.088011928372E+01 -6.164116900591E+01 -2.076051606281E+01  4.892368909364E+01       22
 O   2.062462180253E+01  2.150296889548E+01  1.819082270133E+01  0.000000000000E+00  1.784115089889E+01  1.176313343193E+01 -1.872831954971E+01  9.951233976686E+00 -2.123403180008E+01  1.860095746295E+01       23
 O   2.030119317254E+01  1.947824784282E+01  1.650150556102E+01  0.000000000000E+00 -5.765010864948E+00  4.730714039064E+00  5.854072983537E+00  4.007747752938E+00  7.202049900564E+00 -5.531315794575E+00       24
 O   2.094879831541E+01  1.921254155330E+01  1.924563512254E+01  0.000000000000E+00 -2.139068584757E+00 -6.491009968463E+01  4.360486358143E+01 -6.502190721787E+01  4.746372291288E+01 -1.961780501737E+00       25
 O   1.820057293499E+01  2.237213229241E+01  1.977301417576E+01  0.000000000000E+00  1.945835277174E+01  2.644982955067E+01  3.179048286041E+01  2.337697845767E+01  2.926235710936E+01  2.391819444127E+01       26
 O   2.175799140151E+01  1.744943643959E+01  2.123195389790E+01  0.000000000000E+00  1.410457461422E+01 -2.600358122320E+00  2.099562091511E+01 -3.164038217640E+00  2.151580309269E+01  1.131156243683E+01       27
 O   1.759408337447E+01  2.221964372401E+01  1.718655334397E+01  0.000000000000E+00  1.505577272502E+01  2.500434637679E+01 -2.712324844756E+01  1.934047810008E+01 -2.776639882483E+01  1.901400026472E+01       29
 Ca  4.505958441353E+00  1.052776449521E+01  1.417405611670E+01  0.000000000000E+00 -1.510444457494E+00  1.720209990375E+00  4.013109661247E+00  2.316004784034E+00  1.275774923232E+00 -3.529016909179E+00       32
 Si  1.360315044884E+01  1.969739245868E+01  1.262330383252E+01  0.000000000000E+00  6.061856178214E+00  3.577045501196E+01 -1.558542698371E+01  2.292391354798E+01 -1.679519964675E+01  8.777581385977E+00       37
 Si  1.283955636340E+01  2.225090440103E+01  1.419173954890E+01  0.000000000000E+00 -1.802354909268E+01 -1.136572003140E-01  2.237300842403E+00 -7.249113814170E-02  2.024131725990E+00 -3.123474491469E+01       38
 O   1.334858912654E+01  2.141861582404E+01  1.283940656818E+01  0.000000000000E+00 -1.258503589344E+01 -1.406104338881E+01  1.725512500817E+01 -8.428903824826E+00  1.793942522484E+01 -2.019344863925E+01       40
 O   1.338514231879E+01  1.862751959673E+01  1.377206286435E+01  0.000000000000E+00 -6.433245643181E+00 -3.760567661202E+00  1.646824951073E+01 -2.780336585704E+00  1.600558068996E+01 -8.952867771954E+00       41
 O   1.519781307800E+01  1.976793261900E+01  1.243190241382E+01  0.000000000000E+00  1.226420277598E+01 -3.073526359960E+00 -4.264300295546E+00 -1.932917341927E+00 -5.213042754272E+00  1.595215922561E+01       42
 O   1.274596586831E+01  1.949975074832E+01  1.124922095880E+01  0.000000000000E+00 -5.320590108109E+00 -1.932484452484E+01  2.891432972441E+00 -1.114831922008E+01  3.276147398315E+00 -8.139844560550E+00       43
 O   1.363748864465E+01  2.360529706890E+01  1.417019097912E+01  0.000000000000E+00 -7.296749286471E+00  7.078177462600E-01 -8.572570113233E+00  4.249009285349E-01 -8.250300066308E+00 -1.263003321451E+01       44
 O   1.104458781700E+01  2.243336304103E+01  1.409373889676E+01  0.000000000000E+00  1.919841723560E+00  8.368413550714E+00 -1.033348399160E+01  5.257447817707E+00 -8.097856235085E+00  3.899512329437E+00       46
 O   8.215676159991E+00  2.186793570548E+01  1.447053457385E+01  0.000000000000E+00  6.758919444944E+00 -2.223149702391E+00 -9.721302861935E+00 -1.471111176865E+00 -5.519289958451E+00  1.799043839877E+01       47
 O   1.682874819280E+01  1.526969133148E+01  1.014293939534E+01  0.000000000000E+00 -6.810418539934E+00  1.091583295460E+01  7.000371727811E+00  7.250875587764E+00  1.161472907128E+01 -6.179484519680E+00       48
 Ca  6.269927399526E+00  2.091691372617E+01  1.285914759967E+01  0.000000000000E+00  1.450694505342E+00  2.517297089982E+01 -5.344331004303E+00  1.547565537444E+01 -2.605815598296E+00  4.839617730430E+00       49
 Si  2.016470947035E+01  2.026516143626E+01  2.290452761052E+01  0.000000000000E+00 -4.052285580950E+01  7.695289781338E+01  4.246777958506E+01  8.697536302488E+01  3.738782356682E+01 -4.072472336114E+01       51
 Si  1.929348934816E+01  2.251785899720E+01  2.108357446179E+01  0.000000000000E+00  3.544070700722E+01  2.744279525414E+01 -4.799256650621E+01  2.569481482464E+01 -4.391779355804E+01  4.136363457892E+01       52
 O   1.908718348436E+01  2.116793640107E+01  2.190668091343E+01  0.000000000000E+00  2.267258986488E+01 -3.477154218430E+01  1.824541378841E+01 -3.598504195528E+01  1.589713942078E+01  2.514419902238E+01       54
 O   1.940068818909E+01  1.893350424616E+01  2.339655987151E+01  0.000000000000E+00  3.006162515410E+00 -1.557996190910E+01 -9.684268854361E-02 -1.925251167787E+01 -8.030303660649E-02  2.933771740230E+00       55
 O   2.169487235603E+01  2.009371592473E+01  2.259096329557E+01  0.000000000000E+00  2.582935766103E+01  9.208270083445E-01 -3.544394897795E+01  1.035267405243E+00 -3.403803276601E+01  2.392306194946E+01       56
 O   2.033234733473E+01  2.136405996138E+01  2.424776083831E+01  0.000000000000E+00 -9.992810384288E+00 -2.240978942480E+01 -1.056985476199E+01 -2.543464188884E+01 -8.863084708377E+00 -1.049986982408E+01       57
 O   1.611251681176E+01  2.081910691921E+01  1.887984305571E+01  0.000000000000E+00  6.187407229094E+00  2.235024770237E+01 -1.581208417168E+01  2.026836071857E+01 -1.349441683882E+01  7.994796477800E+00       58
 O   1.431871154309E+01  1.158848873929E+01  1.144174759954E+01  0.000000000000E+00  5.833759035548E+01  6.457358210255E+00  2.047728785302E+01  6.375590852586E+00  2.562618825503E+01  4.721406020908E+01       59
 H   4.497420255328E+00  5.639726880942E+00  1.593196175476E+01  0.000000000000E+00 -2.195873826948E+00  1.606566971124E+01  3.524196301307E+00  4.538475724222E+01  9.948424477305E-01 -2.753607167204E+00       70
 H   1.420838734612E+01  1.987606735614E+01  1.823935660993E+01  0.000000000000E+00  9.163508480665E-01 -6.272003813810E+00  1.283176629482E+00 -5.755530617255E+00  9.995895674985E-01  1.281880253849E+00       73
 H   1.654937742759E+01  1.262837667709E+01  1.643338149840E+01  0.000000000000E+00 -2.290342794958E+01 -5.173102702457E+00 -3.416150911357E+01 -6.731789240502E+00 -3.440264000879E+01 -1.747697861201E+01       83
 Si  2.319174617963E+00  2.108405536266E+01  2.136282166739E+01  0.000000000000E+00  4.826367585042E-01 -4.444272923944E+01 -2.459812858706E+01 -4.503033609159E+01 -2.752027294593E+00 -4.900233526080E+01       89
 Si  2.473995941613E+00  2.091261209888E+01  1.809166028957E+01  0.000000000000E+00 -6.764707847146E+00 -4.741560225149E+01  2.423869330525E+01 -4.101959928789E+01  1.934887253461E+00 -1.903110209316E+01       90
 O   1.600716742426E+00  2.102067999097E+01  1.953019744483E+01  0.000000000000E+00  5.003408015883E+01  2.711351158522E+00  1.438736915292E+01  2.519101355948E+00  6.622759455304E-01  1.598158472474E+01       92
 O   2.477137391146E+00  1.946397296330E+01  2.169205044035E+01  0.000000000000E+00 -3.434311754230E+00  2.720359653929E+01  3.764214973053E+00  3.031764323769E+01 -7.905675836962E-02 -2.926912560666E+01       95
 O   1.420328491413E+00  1.990683862371E+01  1.710317660928E+01  0.000000000000E+00  1.304776950086E+01  4.374166926917E+01  2.610287738303E+01  3.758113022549E+01 -4.012190024703E+00  9.321730012728E+00       96
 O   3.868853291051E+00  2.011875309836E+01  1.844509489372E+01  0.000000000000E+00 -2.281508752864E+00  9.316133164882E+00 -1.464533858397E+01  8.541133708870E+00 -3.232608785446E+00 -1.632516498766E+01       97
 O   1.130308464161E+01  1.551168025044E+01  2.074829678519E+01  0.000000000000E+00 -1.169844025687E+01 -1.325025487282E+01  2.955902542987E+01 -1.772343267409E+01  1.610292014889E+01 -1.605424275294E+01       98
 O   3.541588165778E+00  1.208805647352E+01  2.002239430597E+01  0.000000000000E+00  2.506065044912E+00 -5.397901027509E-01  2.917188852607E+01 -8.940966071269E-01  5.098560948373E+00  9.044708230905E+00      101
 Ca  2.212579807319E+01  2.354091024798E+01  1.856136184604E+01  0.000000000000E+00 -1.119202149976E+01 -6.299034077424E+00  2.838771749570E-01 -4.966615545448E+00  3.383916063265E-01 -1.190783594552E+01      102
 O   1.658823974926E+01  3.668072493314E+00  1.054113199741E+01  0.000000000000E+00  1.480015197380E+01  1.174501020836E+01 -7.340659899802E+00  3.360633063566E+01 -1.155175994055E+01  3.283387314927E+00      105
 Si  5.079650185142E+00  1.598598317759E+01  1.965487901196E+01  0.000000000000E+00  4.357161981345E+00  1.663218133367E+01 -2.213864640763E+01  2.044938420031E+01 -5.721560496752E+00  1.371226671072E+01      107
 Si  7.997735074312E+00  1.692421105130E+01  2.005636763527E+01  0.000000000000E+00  2.835326712508E+00 -5.546256752798E+01  7.024589263348E+00 -6.572700145166E+01  2.801145499314E+00  5.999907128207E+00      108
 Si  7.739431227808E+00  1.999660064653E+01  1.948963031486E+01  0.000000000000E+00 -1.038726890245E+01  1.798279475130E+01  4.326491207955E+00  1.752688008957E+01  1.718071642239E+00 -2.683789828174E+01      109
 O   6.747075161373E+00  1.619755596631E+01  1.912185631563E+01  0.000000000000E+00  7.600478896498E+00  1.077129107105E+01  3.429262516927E+01  1.271593570183E+01  1.210002395577E+01  1.824630367268E+01      110
 O   4.565476511929E+00  1.683523327688E+01  1.825970394341E+01  0.000000000000E+00 -5.679157607276E+00 -2.645624302692E+01  3.741650646451E+01 -2.869477108999E+01  9.355254715606E+00 -2.094194174142E+01      111
 O   4.993790464890E+00  1.667182290276E+01  2.113177535929E+01  0.000000000000E+00 -2.036944090373E+00  1.672131403811E+00 -2.032622638176E+01  2.119450608529E+00 -4.803425825167E+00 -6.800359641896E+00      112
 O   4.552071858577E+00  1.441250936398E+01  1.982391513864E+01  0.000000000000E+00  1.812141227360E+00  1.754426257096E+01 -2.186849696055E+01  2.413153487664E+01 -5.021559510687E+00  5.737497829468E+00      113
 O   8.091714740497E+00  1.628363957386E+01  2.168998698958E+01  0.000000000000E+00 -3.442095025912E+00  2.420734661671E+01 -4.241290027945E+01  3.224445191060E+01 -1.582265081779E+01 -6.926817933954E+00      114
 O   1.110681567178E+01  1.392661716753E+01  3.559404710874E+01  0.000000000000E+00 -8.698755043235E+00 -3.118895529661E+01 -1.739847592170E+01 -7.971362540849E+01 -5.429044481564E+00 -1.090719742735E+01      115
 O   8.023008972047E+00  1.853603737841E+01  2.020142159292E+01  0.000000000000E+00  6.399358790123E-01 -9.407307311605E-01 -1.204028720288E+00 -1.025251390987E+00 -4.781808637099E-01  1.478482127402E+00      117
 O   6.451210438639E+00  2.078632359741E+01  2.018143727490E+01  0.000000000000E+00  9.409442914043E-01 -1.935167544485E+01  1.142479662360E+01 -1.878853768076E+01  3.652057394801E+00  3.031798871591E+00      118
 O   6.732581136561E+00  1.018614126394E+01  2.193954856000E+01  0.000000000000E+00 -1.201684247903E-01  3.264991153685E+00 -2.316055234565E+01  7.032342288226E+00 -7.107270115802E+00 -1.818102931923E-01      119
 Ca  2.352791243559E+01  1.916807986015E+01  2.107083225355E+01  0.000000000000E+00 -3.102926237722E+01 -1.278320255518E+01 -3.030380839558E+01 -1.405214912858E+01 -3.383755049713E+01 -2.527939445866E+01      120
 Ca  2.818643171762E+00  1.197824493187E+01  1.798254097509E+01  0.000000000000E+00 -5.067050755558E-01  7.283673633767E+00 -7.520854674474E+00  1.093473712663E+01 -3.649365221134E-01  3.321163221079E+00      121
 Si  1.146949900766E+00  1.697158937453E+01  1.419808550790E+01  0.000000000000E+00  5.067778294273E-01  2.427473262337E+01  5.556955384881E+00  2.030774619054E+01  1.763541079520E+00 -1.313693280868E+01      125
 Si  2.036266144455E+00  1.955494061695E+01  1.568323671691E+01  0.000000000000E+00  1.564948107868E+00 -6.313163256913E+01 -3.917488006733E+01 -5.063213217064E+01 -5.387634721700E+00  3.366725830857E+01      126
 Si  3.193829987163E+00  2.097347723186E+01  1.305478561600E+01  0.000000000000E+00 -7.509506180566E+00  1.927075302788E+01 -1.700069868090E+01  1.199493754215E+01 -4.888430626771E+00 -1.436820457583E+01      127
 O   8.170331465732E-01  1.836102478858E+01  1.518948368225E+01  0.000000000000E+00  6.759234251335E+00  9.001999500499E+00 -1.347294847387E+01  7.447063880960E+00  2.415340426746E+00  7.089967768929E+00      128
 O   2.631464539354E+00  1.683282342739E+01  1.367515817409E+01  0.000000000000E+00  4.044701732731E+00  1.553767891811E+01 -2.044611122080E+01  1.262296950835E+01 -4.006857792709E+00  2.240903003746E+01      129
 O   1.182809388154E+00  1.584687973030E+01  1.540224239689E+01  0.000000000000E+00  2.643790135650E+00 -3.145371578422E+01 -1.350195596355E+01 -3.057117634742E+01  2.000167439243E-01 -1.047998213497E+00      131
 O   3.387912475052E+00  1.857816170473E+01  1.586848296023E+01  0.000000000000E+00 -2.664240244730E+00  1.146804341744E+01 -3.533457129108E-01  9.795396038054E+00 -2.251461502050E-01 -1.570682213425E+01      132
 O   3.102810193917E+00  4.426331566355E+00  9.173301991811E+00  0.000000000000E+00 -5.129761396330E+00  1.192707576238E+00 -1.494272637428E+01  2.471813649912E+00 -5.285955086366E+00 -1.049520917037E+01      133
 O   2.537952769368E+00  2.057961551667E+01  1.444573743052E+01  0.000000000000E+00 -2.411417725544E+00 -5.158579255202E+00  4.161796223091E+01 -3.621033705648E+00  7.165632798529E+00 -3.958841645438E+01      134
 O   2.185891929986E+00  2.109532552546E+01  1.184944589026E+01  0.000000000000E+00  8.075416320563E-01  1.002453376341E+00 -2.010832712309E+01  5.630876388295E-01 -7.799735468394E+00 -7.800341133535E+01      135
 O   8.312292262383E+00  1.462428869011E+01  1.337591894087E+01  0.000000000000E+00 -4.018375017439E+00 -2.667341076156E+00 -2.711516835205E+01 -2.439649461136E+00 -1.685037155819E+01 -7.069755786389E+00      136
 Si  8.603464445866E+00  1.462497056592E+01  2.545513781304E+01  0.000000000000E+00  1.562677019778E+01 -1.387071727341E+00 -5.430472773077E+01 -2.414234053798E+00 -1.835420407878E+01  2.656384013916E+01      139
 Si  8.520028806251E+00  1.690756586674E+01  2.318838759238E+01  0.000000000000E+00 -1.088126469297E+01 -6.816493756819E+01 -4.114847408089E+01 -9.348684517923E+01 -1.511904107630E+01 -2.159331895390E+01      140
 O   8.274029322605E+00  1.549632849284E+01  2.411668828071E+01  0.000000000000E+00 -2.828484178669E+00  1.510798221838E+01  1.895521132237E+01  2.351231118257E+01  6.503213561994E+00 -5.297433482585E+00      142
 O   7.435996451175E+00  1.360888017860E+01  2.568050589868E+01  0.000000000000E+00 -1.172561984884E+01 -2.706375819409E+01  1.669621155052E+01 -5.107040350288E+01  4.834521964931E+00 -2.145947171849E+01      143
 O   7.661103982809E+00  1.813403537627E+01  2.364804707537E+01  0.000000000000E+00  3.533895233337E+00  6.956314267499E+00 -1.173882851717E+01  9.071519044466E+00 -3.802951914793E+00  8.364823310215E+00      148
 O   1.266488092061E+01  1.599238681857E+01  1.979287148959E+00  0.000000000000E+00 -2.482635372557E+01 -3.341255933541E+01  1.243601310351E+01 -5.580148848951E+00 -8.226316647845E+00 -3.134910265345E+01      150
 Ca  4.555310394132E+00  1.178563910469E+01  7.531749563374E+00  0.000000000000E+00  1.588782715718E+00  6.728433202636E+00 -7.397185522005E+00  4.299883390792E+00 -4.519946072965E+00  4.508772811164E+00      151
 Ca  1.300948265105E+01  2.225919547346E+01  1.924038232251E+00  0.000000000000E+00 -1.856199727846E+01 -2.445542903198E+01 -1.267179672460E+01 -4.850985960918E+00 -1.134033442856E+00 -3.175953547742E+01      152
 H   7.288003911576E+00  1.810727180451E+01  1.527418789746E+01  0.000000000000E+00  7.640610698726E+00 -1.576365955908E+01 -5.914971236953E+00 -1.329725983332E+01 -2.822299542284E+00  1.898333430564E+01      155
 H   1.021796427232E+01  1.421272772951E+01  3.595638759836E+01  0.000000000000E+00  1.120271558982E+01 -8.184563750054E+00 -1.428390417238E+01 -2.070590192967E+01 -4.059151440153E+00  1.558247242464E+01      156
 H   1.517883237151E+01  1.188113874680E+01  1.200844665192E+01  0.000000000000E+00 -5.244600952322E+01 -1.145128883110E+01 -2.396244407020E+01 -1.157399083997E+01 -3.028884020526E+01 -4.105179506633E+01      159
 H   1.668551356261E+01  2.784693159064E+00  1.081393943173E+01  0.000000000000E+00 -2.153661114604E+00 -6.202246115787E+00  6.788836257949E+00 -2.690081446215E+01  1.047492638288E+01 -4.405587574356E-01      160
 H   1.594747485341E+01  1.516612924080E+01  1.461312641149E+01  0.000000000000E+00  6.493103267713E+00 -2.404026077241E+00 -1.348673252541E+01 -2.316368033362E+00 -1.471822810172E+01  6.174974046812E+00      164
 H   1.860514397628E+01  6.433595118235E+00  6.410392292830E+00  0.000000000000E+00 -1.161745592319E+01 -5.544947491219E+00  5.386538550009E+00 -5.524949582405E+00  1.563357134458E+01 -4.017276502081E+00      168
 H   5.315453862320E+00  2.122646005254E+01  3.297502246465E+01  0.000000000000E+00  1.430164955931E+01 -4.090941163623E+01  1.153569808870E+01 -6.355222511814E+01  1.859512636447E+00  5.711147174244E+01      169
 Si  1.194112498727E+01  4.881513823105E-01  1.977119803398E+01  0.000000000000E+00  2.271679637621E+01 -1.880313526927E+02 -3.908659079502E+00  6.076624758793E+01 -2.360695923472E+00 -1.047118672780E+02      177
 Si  1.082710613380E+01  3.228625937518E+00  1.857548542137E+01  0.000000000000E+00 -6.710088157148E+00 -5.108747500794E+00  1.036469657459E+01 -3.009501752517E+01  6.041277916144E+00 -1.713790126573E+00      178
 Si  8.067428467425E+00  3.828606100782E+00  1.994159761481E+01  0.000000000000E+00  1.464380646437E+01 -8.411907762309E-01  2.500881392604E+01 -4.381408673370E+00  1.011738484051E+01  6.949595772005E+00      179
 O   1.160650512465E+01  1.787030427977E+00  1.850892647602E+01  0.000000000000E+00  3.203684420755E+00 -1.199657248204E+00  8.982502490437E+00 -3.272919617544E+01  5.632712481869E+00 -2.676727669615E+00      180
 O   1.166758298699E+01  1.304945294834E+00  2.116196416236E+01  0.000000000000E+00 -1.529770202461E+01 -3.205296678068E+00  1.584574423447E+01 -1.999218013444E+00  8.736501698415E+00 -2.916337571748E-01      182
 O   1.042944395168E+01  3.784055861221E+00  1.710518224140E+01  0.000000000000E+00  3.815400565929E+00  2.571620977451E+00  4.479928582516E+00  1.291702222779E+01  2.731520974141E+00  1.340681213276E+00      184
 O   1.177163957760E+01  4.224669580628E+00  1.938158048716E+01  0.000000000000E+00  7.736234049780E+00  6.309023413623E+00 -2.179409212446E+01  2.892316261730E+01 -1.323690797972E+01  2.776864827207E+00      185
 O   9.470717063324E+00  2.888463859234E+00  1.952998094802E+01  0.000000000000E+00 -5.485802939985E+00  3.116125728142E+00 -1.867033913458E+01  2.591600795043E+01 -9.053849048318E+00 -1.524060477991E+00      187
 O   6.767856695318E+00  3.426034919633E+00  1.914528552874E+01  0.000000000000E+00  1.082612767032E+01  2.664260092471E+00  1.649913305858E+01  1.466856287469E+01  5.832442037482E+00  5.492058964480E+00      188
 Ca  1.168377326777E+01  3.720356828882E+00  2.128851070990E+01  0.000000000000E+00  5.942408023764E-01 -2.993961708829E+00  5.091065419922E+01 -1.698217039514E+01  2.794129418837E+01  1.766620022471E-01      190
 O   1.602288851939E+01  1.863324293758E+01  7.179124447681E+00  0.000000000000E+00  1.269502603147E+01 -2.815582589425E+00 -2.150818651489E+00 -1.084804071407E+00 -4.800352428682E+00  1.476322473672E+01      193
 O   4.513432685013E+00  1.226792388021E+01  1.223074478380E+01  0.000000000000E+00 -1.293449413124E+01 -1.590369173474E+00  1.791762068741E+01 -1.585549410212E+00  6.572800053988E+00 -3.488669302571E+01      194
 Si  1.827226194393E+01  1.531320178187E+00  1.964951549007E+01  0.000000000000E+00 -2.700435186450E+01  1.910393424592E+00  4.878902519022E+01 -1.395270632148E+01  4.536935522482E+01 -3.029519129730E+00      196
 Si  1.644457725585E+01  3.932444512115E+00  1.930751797655E+01  0.000000000000E+00  2.985591179226E+01  2.460998944314E+00  2.237825823256E+01  1.447926111540E+01  1.905998465487E+01  7.221087966020E+00      197
 O   1.977578555588E+01  1.808759885203E+00  2.019841874651E+01  0.000000000000E+00  1.593049761172E+01  3.909814751999E-01  3.311543922399E+01 -1.470527466345E+01  3.242252935247E+01  2.298996272906E+00      202
 O   1.776063110192E+01  3.044119706724E+00  1.975000059762E+01  0.000000000000E+00 -2.366203743947E+01  2.560014892098E+00  3.062504119707E+00  4.940589762779E+00  2.754025532779E+00 -3.739167346163E+00      205
 O   1.593129985176E+01  5.059633517480E+00  2.035498426988E+01  0.000000000000E+00 -6.890094497220E+00  1.650012192483E+00  6.963753630707E+00  6.638024692316E+00  5.450343056699E+00 -2.188230300172E+00      206
 Ca  1.428640328109E+01  5.347839219961E+00  1.866431481347E+01  0.000000000000E+00 -1.373039966696E+01  1.455980447878E+00 -3.924727690773E+00  5.081468668695E+00 -3.004141492427E+00 -5.139710002577E+00      209
 O   2.266754272251E+01  1.880112975222E+01  1.516534004416E+01  0.000000000000E+00 -2.080170349950E+01  4.994369593880E+00  7.924399435213E-01  4.028551166638E+00  1.184455226357E+00 -1.725354756574E+01      210
 O   1.415130648635E+01  1.720380209879E+01  4.301264062918E+00  0.000000000000E+00 -4.336709504393E+01 -2.648165610206E+01  6.383160846507E+00 -6.620896652048E+00  2.100081840344E+01 -5.272155764944E+01      212
 Si  1.432622268590E+01  3.667799115714E+00  1.524867309203E+01  0.000000000000E+00 -3.694424369800E+01  4.028813881582E+00  1.634289175255E+01  2.078336160672E+01  1.535424788542E+01 -9.704352311593E+00      213
 Si  1.146400842026E+01  4.872600535819E+00  1.635632718573E+01  0.000000000000E+00  3.882342347222E+01 -1.324796356600E+01  4.287436050148E+01 -4.447071436236E+01  3.005026887889E+01  1.650129929063E+01      214
 Si  9.986316910708E+00  6.203194142143E+00  1.397883880360E+01  0.000000000000E+00 -1.759677336691E+01  4.560030321745E+00 -4.478362518498E+00  1.027598481468E+01 -3.199289152633E+00 -1.093057655252E+01      215
 O   1.266344348459E+01  3.919002489129E+00  1.574768980938E+01  0.000000000000E+00  4.947059851780E+00 -2.867691697327E-01 -1.498977630461E+01 -2.840111829201E+00 -1.205397028883E+01  1.422871996041E+00      216
 O   1.513186265033E+01  3.882874580905E+00  1.660219161170E+01  0.000000000000E+00  1.267671929447E+01 -1.960501496363E+00  1.756746231470E+01 -1.086579962969E+01  1.601164671980E+01  3.462628851446E+00      217
 O   1.483108497229E+01  4.854071110498E+00  1.432299549163E+01  0.000000000000E+00 -5.880342959897E-01  6.327259398292E+00 -2.411310854947E+01  1.866995883932E+01 -2.496848945125E+01 -1.924579552662E-01      218
 O   1.458628683299E+01  2.247740913883E+00  1.464080712833E+01  0.000000000000E+00  1.182634318429E+00  3.906875001199E+00  1.114191798530E+01 -9.069377499172E+00  1.110042705834E+01  8.021073349744E-01      219
 O   1.232683680062E+01  6.037419022005E+00  1.723596109025E+01  0.000000000000E+00 -3.162621347667E+00 -1.461389973585E+00 -8.840747619881E+00 -4.172057733707E+00 -6.322737243089E+00 -1.548983781698E+00      220
 O   1.055816558659E+01  5.522048169225E+00  1.533951966785E+01  0.000000000000E+00 -2.705121128079E+01  4.805765753888E+00 -3.961945862453E+01  1.334978182763E+01 -2.727000673206E+01 -1.414811034202E+01      222
 O   1.121519420789E+01  6.896948531014E+00  1.333620270049E+01  0.000000000000E+00  1.661347491088E+01  4.087112706455E+00 -1.589662367516E+01  7.902996994678E+00 -1.336840221842E+01  1.021670059900E+01      223
 O   2.147865935403E+01  2.133645598440E+01  1.337553669910E+01  0.000000000000E+00 -8.366977344455E+00  1.993894070536E+00 -1.179831410733E+01  1.249945320539E+00 -1.894592907664E+01 -8.311582249612E+00      224
 Ca  1.574089695550E+01  7.788763947551E+00  5.831242085398E+00  0.000000000000E+00 -9.085447685507E+00  1.753927254578E+00  5.055882474912E+00  1.313119063627E+00  1.364788562903E+01 -4.495576559602E+00      225
 Ca  1.693413751772E+01  4.657831920784E+00  1.545353413162E+01  0.000000000000E+00  5.860841448424E+00  1.933828373826E+00  1.852676377654E+00  6.415964184162E+00  2.030181335080E+00  1.612058148965E+00      226
 Si  2.120469306101E+01  2.403056555493E+00  2.049826107960E+01  0.000000000000E+00  5.532015810803E+01 -1.816338139472E-01 -7.393715132508E+01 -1.553101174982E+00 -7.648524884943E+01  7.846470869538E+00      228
 Si  2.265143826717E+01  4.679838332793E+00  2.149214804089E+01  0.000000000000E+00  2.917100687748E+01 -5.321555238374E+00 -1.797584269655E+01 -2.443923162676E+01 -1.894546279723E+01  6.026795940339E+00      229
 O   2.220387427477E+01  1.156153402097E+00  2.091445181233E+01  0.000000000000E+00 -1.445000711680E+01  4.107049743483E+00 -6.702461387584E+00  6.166279520002E+00 -7.115683036630E+00  5.723713933260E+00      230
 O   2.125269243019E+01  3.739723340519E+00  2.143933222835E+01  0.000000000000E+00  9.248049887016E+00  2.948362163316E-01 -1.228180476736E+01  1.277874242490E+00 -1.217488569272E+01  1.592814166026E+00      236
 O   2.307847395995E+01  4.514527921998E+00  2.305131375196E+01  0.000000000000E+00  1.865306839549E+01 -3.386843870946E+00  4.386836002671E+01 -1.755079334940E+01  4.392004791726E+01  3.651137871161E+00      237
 H   1.362232233789E+01  1.646695311232E+01  4.707189350557E+00  0.000000000000E+00  2.782773135095E+00  1.170123069997E+01 -3.202956876091E+00  3.344875531229E+00 -9.269164197807E+00  3.363875380512E+00      243
 H   1.894847761282E+01  1.878042154740E+01  7.295678288401E+00  0.000000000000E+00  4.563577662067E+00 -4.900770575286E+00 -8.017045770837E-01 -1.903814852734E+00 -2.082202727486E+00  4.523102805893E+00      247
 H   1.333369448026E+01  7.499536025698E+00  7.922174637056E+00  0.000000000000E+00  2.580709897383E+01  1.190174767350E+01  3.927805358342E+00  1.257247424808E+01  6.610830867208E+00  1.451520197643E+01      248
 H   5.992443006863E+00  1.053221645814E+01  1.075713200125E+01  0.000000000000E+00 -2.376527222910E+00 -2.367015647874E+00 -8.045195645889E+00 -2.417563280663E+00 -4.481712819129E+00 -4.176944044639E+00      249