     8448
Lattice="     49.70      0.00      0.00      0.00     49.70      0.00      0.00      0.00     49.70" pbc="T T T" config_type=md Properties=species:S:1:pos:R:3:charge:R:1:forces:R:3:id:I:1
 Si  1.075474195787E+01  1.728616587469E+01  1.620242763301E+01  0.000000000000E+00 -1.321218648483E+01  5.843829092523E+00 -7.280010375856E+00  5.477456288322E+00 -4.832277904047E+00 -2.123603225804E+01        1
 Si  1.261278116756E+01  1.988390803659E+01  1.677373010218E+01  0.000000000000E+00  2.616025384036E+01 -2.800994667356E+01  4.064854746435E+00 -2.362871950595E+01  3.056512957010E+00  4.124134674701E+01        2
 Si  1.085895909380E+01  2.246221487149E+01  1.760001184792E+01  0.000000000000E+00  2.491331191694E+01 -1.228768710888E+01  8.182995926234E+01 -9.627876856183E+00  5.048793080111E+01  5.153423644062E+01        3
 O   1.191267251370E+01  1.834808040811E+01  1.678897454323E+01  0.000000000000E+00  4.110884890225E+00  2.975751730893E+01  3.835220084315E+00  2.722890839026E+01  2.721293117977E+00  6.331647783283E+00        4
 O   9.543850267880E+00  1.808869996741E+01  1.536065537911E+01  0.000000000000E+00  1.280694151068E+01 -9.813428434109E+00  1.510480126213E+01 -8.333417688138E+00  9.384883523128E+00  2.427331904678E+01        5
 O   1.167228126775E+01  1.637721186113E+01  1.520100801445E+01  0.000000000000E+00 -4.863651823848E+00 -1.566713118023E+01 -1.867182723816E+01 -1.454192500247E+01 -1.433739256630E+01 -6.824120710489E+00        6
 O   1.015927443526E+01  1.650364817981E+01  1.752232704710E+01  0.000000000000E+00  7.929654562421E+00 -3.596613800034E+00 -5.255648688871E+01 -3.818612865451E+00 -3.047173884042E+01  1.288165113755E+01        7
 O   1.340836936923E+01  2.011762622291E+01  1.533274118386E+01  0.000000000000E+00 -1.077578178717E+01  1.292467638360E+01 -7.384200425034E+00  9.850601441694E+00 -6.457428949464E+00 -1.616774898456E+01        8
 O   1.398900173136E+01  2.043995023860E+01  1.767051624483E+01  0.000000000000E+00  5.632563133221E+00 -2.161962853903E+01 -6.588509925517E+00 -1.869035848162E+01 -5.215845167064E+00  8.229987555206E+00        9
 O   1.159377583811E+01  2.081120507837E+01  1.760228946875E+01  0.000000000000E+00 -2.744453620325E+01  5.059050623706E+01  2.068983628841E+00  4.278986881354E+01  1.362739344111E+00 -4.926383597390E+01       11
 O   1.957699967167E+01  1.843613167107E+01  2.108276953721E+01  0.000000000000E+00  8.997128278951E+01 -3.584986624678E+01  3.028612378772E+01 -4.099636960212E+01  2.812303357023E+01  8.472812197688E+01       13
 Ca  3.594474182708E+00  1.547474771275E+01  1.720763013916E+01  0.000000000000E+00  8.157989385084E-01  1.186290324139E+01  1.409056879584E+00  1.319132661441E+01  2.986409786794E-01  3.598291172465E+00       14
 Ca  2.260543608314E+01  1.289438260197E+01  1.830289813416E+01  0.000000000000E+00 -1.808943822420E+00  1.110862347807E+01 -1.605971385893E+01  1.576810695061E+01 -1.983493720450E+01 -1.031840910565E+00       15
 O   6.747705641455E+00  4.727679775756E+00  1.678863153207E+01  0.000000000000E+00  2.227104561912E+01  2.420830438324E+00 -5.317164396263E+00  7.586016923949E+00 -2.137080686098E+00  1.564047276446E+01       16
 O   9.610640571742E+00  1.702003980330E+01  1.973028958461E+01  0.000000000000E+00  1.757665860754E+01 -4.897484594877E-01 -8.902424427849E+00 -5.677353896336E-01 -4.336378390507E+00  3.112752234112E+01       18
 Si  2.035715155077E+01  1.991571704778E+01  1.829074538876E+01  0.000000000000E+00  2.259538992772E+01  7.807932760719E+00 -4.306539735128E+01  7.170864588820E+00 -4.793073228239E+01  2.210542036111E+01       19
 Si  1.827631414488E+01  2.176032052140E+01  1.852396222449E+01  0.000000000000E+00 -1.958987721845E+01  4.356534254313E+01  2.123132296478E+01  3.708597760645E+01  2.094747999987E+01 -2.332428759262E+01       20
 O   1.871924303463E+01  2.023321426931E+01  1.866314398221E+01  0.000000000000E+00  3.035029397702E+01 -3.494328689307E+01  1.400771764978E+00 -3.223173470199E+01  1.404982307893E+00  3.280495904869E+01       22
 O   2.116756980042E+01  2.137940077762E+01  1.804258925397E+01  0.000000000000E+00 -1.180175512836E+01 -4.193309529639E+01  1.892324727130E+01 -3.538834518564E+01  2.220075798586E+01 -1.191985925392E+01       23
 O   2.062108531326E+01  1.921506287504E+01  1.677132731150E+01  0.000000000000E+00 -1.554765320931E+01  1.139727748499E+01  1.471182643608E+01  9.947793166418E+00  1.808883831421E+01 -1.448755627737E+01       24
 O   2.119272369028E+01  1.879685649795E+01  1.921205956855E+01  0.000000000000E+00  3.194915767718E+00  1.677706211564E+01 -6.175322069111E+00  1.714765002255E+01 -6.811965882273E+00  2.833726050813E+00       25
 O   1.848155827625E+01  2.256305765609E+01  2.000236906999E+01  0.000000000000E+00  2.556565204347E+00 -2.277687171462E+01 -3.568799965522E+01 -2.019191730305E+01 -3.297458631438E+01  3.121161497587E+00       26
 O   2.233325423715E+01  1.732195151645E+01  2.098040285983E+01  0.000000000000E+00 -2.687612393358E+01 -4.549980107766E+00  4.525320870842E+00 -5.510950401544E+00  4.817121110039E+00 -2.084545811301E+01       27
 O   1.897071455807E+01  2.239456942654E+01  1.723919040033E+01  0.000000000000E+00  1.875295397297E+01  8.525211625744E+00 -1.757217956649E+01  6.562651132961E+00 -1.933714953997E+01  2.213750717797E+01       29
 Ca  4.994060920592E+00  1.030982078807E+01  1.404381804157E+01  0.000000000000E+00 -2.848282827366E+00 -7.293888296256E+00  2.369021056012E+00 -9.935579109846E+00  8.424372518121E-01 -5.880041507461E+00       32
 Si  1.263286744046E+01  1.873391302157E+01  1.198034184669E+01  0.000000000000E+00 -2.433395826129E+01 -3.197913600415E+01 -9.639408761441E+00 -2.045066510400E+01 -1.016443225461E+01 -3.608604773903E+01       37
 Si  1.257257373641E+01  2.091509602172E+01  1.404983043939E+01  0.000000000000E+00  1.191301999097E+01 -2.584351461184E+01 -4.589420178005E+00 -1.736052265202E+01 -4.106869747948E+00  1.981789586155E+01       38
 O   1.184983977174E+01  1.986325709614E+01  1.292145517653E+01  0.000000000000E+00  1.296449436855E+01  1.979299248358E+01  8.419868232484E+00  1.287574660833E+01  7.721583064055E+00  2.173169340046E+01       40
 O   1.356361383516E+01  1.770794540833E+01  1.269527054437E+01  0.000000000000E+00 -5.148826075385E+00  5.609106577630E+00 -9.273816218239E+00  4.021309297788E+00 -9.908135594494E+00 -6.722038253813E+00       41
 O   1.321260677145E+01  1.957669831356E+01  1.054546928144E+01  0.000000000000E+00 -7.053661354803E+00 -2.631703550938E+00  1.033566510359E+01 -1.417631743094E+00  1.294973937058E+01 -1.045118520044E+01       42
 O   1.105673311116E+01  1.814511548870E+01  1.144543423032E+01  0.000000000000E+00  2.532071187809E+01  1.069561239917E+01  3.694068157379E+00  6.746494853886E+00  3.568613028448E+00  4.155361594288E+01       43
 O   1.375570898176E+01  2.185523449003E+01  1.336691726764E+01  0.000000000000E+00 -3.170690881453E+01 -6.512586814217E+00  3.713936293413E+00 -3.983174336732E+00  3.821960277460E+00 -5.037631488237E+01       44
 O   1.113344564511E+01  2.109421535438E+01  1.493728391089E+01  0.000000000000E+00  2.996516219365E+01  8.988972759707E-01 -1.137883775376E+01  6.365291902226E-01 -8.481171837645E+00  5.677412048258E+01       46
 O   8.825926176207E+00  2.119571981018E+01  1.577388257000E+01  0.000000000000E+00 -1.361475653317E+00  5.127590378833E+00 -3.058215057667E+00  3.815959506311E+00 -1.711156413785E+00 -3.269623595298E+00       47
 O   1.687305740220E+01  1.525577534180E+01  1.035055168835E+01  0.000000000000E+00 -1.737909175036E+01  2.574206219996E+01  4.517162715881E+00  1.746515921976E+01  7.363698872778E+00 -1.571330631243E+01       48
 Ca  7.796068596421E+00  2.152156618485E+01  1.390507141296E+01  0.000000000000E+00 -6.932898806012E+00  2.475459988012E+00 -2.150955912202E+01  1.599393260582E+00 -1.205962870768E+01 -1.913872853491E+01       49
 Si  2.062495228835E+01  2.080392272753E+01  2.337896615628E+01  0.000000000000E+00  6.031015907114E+01 -1.820405760432E+01 -4.956154828106E+01 -2.045729799194E+01 -4.372325798330E+01  6.083349291963E+01       51
 Si  1.971034511662E+01  2.290399602263E+01  2.098190020836E+01  0.000000000000E+00  2.493407105402E+01  2.327944054430E+01 -7.024995420028E+00  2.132583754924E+01 -6.599263307726E+00  2.897411795025E+01       52
 O   1.996933959887E+01  2.165892383345E+01  2.201842424119E+01  0.000000000000E+00  1.706264808058E+01 -2.474855206780E+00  3.562251153515E+01 -2.515933492238E+00  3.230739958581E+01  1.850630028822E+01       54
 O   1.966248569607E+01  1.956308747393E+01  2.378996844622E+01  0.000000000000E+00 -2.302057515291E+01  4.621106277863E-01  3.408724933838E+01  5.619561466641E-01  2.817322158496E+01 -2.290420104445E+01       55
 O   2.192038775730E+01  1.994962397089E+01  2.258520265467E+01  0.000000000000E+00 -2.460696438732E+01  2.449183277870E+01  9.938392839691E+00  2.772749037767E+01  9.645847684495E+00 -2.239466254098E+01       56
 O   2.139883143103E+01  2.131346212471E+01  2.473981154498E+01  0.000000000000E+00 -1.427464027440E+01  2.197922760770E+01 -1.754828297233E+01  2.551260540109E+01 -1.517848058568E+01 -1.421769248535E+01       57
 O   1.683164804041E+01  2.218797904862E+01  1.798601614604E+01  0.000000000000E+00 -3.770252445818E+01 -1.183962292489E+01  3.481824158454E+00 -9.597433304924E+00  3.258355730243E+00 -4.970058907778E+01       58
 O   1.701139800030E+01  1.771241357326E+01  1.380254597645E+01  0.000000000000E+00  1.387216879990E+01 -3.243725853696E+01  5.604135681377E+01 -2.527700420131E+01  6.906999816281E+01  1.444382119198E+01       59
 H   2.693643041286E+00  8.768114226208E+00  1.350295557605E+01  0.000000000000E+00 -7.337020251241E-02 -1.614056400794E+00  1.072433856805E+01 -2.485657841000E+00  1.763663843916E+00 -2.301206614547E+00       70
 H   1.432332587471E+01  2.045735932793E+01  1.858516657412E+01  0.000000000000E+00 -4.576160459554E+00 -5.098195589846E+00 -1.271586995627E+00 -4.631624871316E+00 -9.799941713610E-01 -6.535923268262E+00       73
 H   1.799678795164E+01  1.051506902336E+01  1.873572618720E+01  0.000000000000E+00  5.515740142810E-01  4.258314976769E+00  3.964145862477E+00  7.587455987820E+00  3.807799696875E+00  3.222707767209E-01       83
 Si  2.182353080019E+00  2.075636121427E+01  2.168887056548E+01  0.000000000000E+00  1.033478770967E+01  5.370000464203E+01  7.189103033453E+00  5.611255450909E+01  1.438743873189E+00  4.747285442346E+01       89
 Si  3.031499569463E+00  2.046564497395E+01  1.861680976919E+01  0.000000000000E+00  8.725459264907E+00  6.290931267697E+01  5.628368973076E+01  5.722618115914E+01  8.054995768047E+00  4.298527030994E+01       90
 O   2.297656781252E+00  2.027315733111E+01  2.013986408871E+01  0.000000000000E+00  9.430753295368E-01 -1.823893946572E+01 -4.054218455677E+01 -1.811902092814E+01 -5.002156649200E+00 -4.734645168952E+00       92
 O   1.304101446534E+00  1.988768198791E+01  2.266494580827E+01  0.000000000000E+00  1.302222530410E+01 -1.609565116570E+01  2.265445646536E+01 -1.834336760016E+01 -1.412494343056E+01 -1.965198511088E+01       95
 O   2.540489980281E+00  1.955404930917E+01  1.745011758878E+01  0.000000000000E+00 -4.457808970330E+00 -2.413152183349E+01  6.530330677036E+00 -2.153507372988E+01  9.751702166470E-01 -3.454533251740E+01       96
 O   4.667911582710E+00  2.049157446210E+01  1.884808136005E+01  0.000000000000E+00 -5.341951167619E+00 -3.018954502954E+01 -1.353981120540E+01 -2.776824211297E+01 -3.329827232965E+00 -2.251480543643E+01       97
 O   1.198478721346E+01  1.367131800930E+01  2.141359668085E+01  0.000000000000E+00 -5.769342422393E+00  1.195727607060E+01 -3.842239780194E+01  1.872886630266E+01 -2.150429321847E+01 -6.581219470673E+00       98
 O   3.779043035415E+00  1.175047078655E+01  2.057717583159E+01  0.000000000000E+00 -3.212559195558E+00  1.768410356019E+01  2.421308883665E+01  3.096802800435E+01  4.515171729758E+00 -1.045883146334E+01      101
 Ca  2.180659167622E+01  2.400073827115E+01  1.833579358935E+01  0.000000000000E+00  1.435088996844E+00 -7.921642158511E+00 -2.692587968799E+00 -6.051880315769E+00 -3.202270253632E+00  1.579485502388E+00      102
 O   1.653075278198E+01  4.629411276108E+00  1.181127569979E+01  0.000000000000E+00 -1.269332050482E+00 -5.422325372617E+00 -1.265886620595E+01 -1.383428174561E+01 -1.771701830263E+01 -3.554744411901E-01      105
 Si  5.713483555401E+00  1.576539811187E+01  2.048671606555E+01  0.000000000000E+00  1.043718532132E+01 -2.279046566588E+01 -6.973205915777E+01 -2.961560474307E+01 -1.944738102522E+01  2.879965964064E+01      107
 Si  8.607466804333E+00  1.696981870315E+01  2.087504072573E+01  0.000000000000E+00 -4.249816476891E+00 -2.488399135254E+00  7.128370435229E+01 -3.061048217366E+00  2.939261901157E+01 -8.378610893763E+00      108
 Si  7.591220225173E+00  1.944648579463E+01  2.050015755821E+01  0.000000000000E+00  8.220545410137E+00  2.604052027925E+01  7.933630144602E+01  2.745147757080E+01  2.937827840676E+01  2.105863284170E+01      109
 O   7.369484470373E+00  1.618413876013E+01  2.021724426604E+01  0.000000000000E+00 -1.418067168107E+01 -6.514365270814E+00  2.189309329644E+01 -8.137752392655E+00  7.980356221323E+00 -3.114219985414E+01      110
 O   5.314880369416E+00  1.656586624742E+01  1.915566783994E+01  0.000000000000E+00 -8.841794262935E+00  3.412923422144E+00 -1.617558804588E+01  3.946478044752E+00 -4.488035399607E+00 -2.755884817086E+01      111
 O   4.931032382045E+00  1.604764144701E+01  2.177883946287E+01  0.000000000000E+00 -2.860347573349E+00  2.151785109124E+01  4.455564761150E+01  2.920266046880E+01  1.008801876472E+01 -9.308767153522E+00      112
 O   5.397117601413E+00  1.402811325902E+01  2.020111638488E+01  0.000000000000E+00  6.534697089747E-01  1.084036778191E+01  2.590501846708E+00  1.561061898873E+01  6.921024980494E-01  1.698489409686E+00      113
 O   8.755402989307E+00  1.595074978512E+01  2.232369107183E+01  0.000000000000E+00  2.142371569146E+00  8.684428264929E+00  1.938887602411E+01  1.215419314662E+01  7.604361776669E+00  3.903010848038E+00      114
 O   1.116693642664E+01  1.332825547546E+01  3.757433539914E+01  0.000000000000E+00  1.879644699699E+00  3.438879202126E+01 -9.293037235085E+01  9.694712168119E+01 -2.761852070362E+01  2.243442946530E+00      115
 O   8.751786034711E+00  1.856250488630E+01  2.153208389517E+01  0.000000000000E+00 -2.584747806523E+01 -1.965570141712E+01 -3.795917497082E+01 -2.280016703155E+01 -1.542863101482E+01 -5.482240264804E+01      117
 O   5.969774778248E+00  1.929544042058E+01  2.087490011769E+01  0.000000000000E+00  1.267278374364E+01 -2.343741899836E+00 -1.165443721008E+01 -2.535592709693E+00 -3.332919674785E+00  4.096083232140E+01      118
 O   6.704239620686E+00  9.893763421404E+00  2.249354417368E+01  0.000000000000E+00  5.544626894671E+00 -6.610607153290E+00 -8.571028043745E+00 -1.502926416208E+01 -2.554609685215E+00  8.182468088784E+00      119
 Ca  2.328671259181E+01  1.939823096124E+01  2.099232508374E+01  0.000000000000E+00 -1.202246248275E+00 -3.070488721869E+00  7.660293217123E+00 -3.322813175296E+00  8.497536399829E+00 -1.001491743602E+00      120
 Ca  3.077385374881E+00  1.211074398987E+01  1.782610918875E+01  0.000000000000E+00 -2.999232715043E+00 -4.738114412988E-01  4.877105683089E+00 -6.974149973394E-01  2.225474993852E+00  9.067539338888E-01      121
 Si  1.126980983919E+00  1.704877133095E+01  1.463651962512E+01  0.000000000000E+00 -2.632851215897E+02 -5.540617569499E+01 -5.791516774142E+01 -4.756668748560E+01 -1.112995398864E+02 -5.117196252645E+01      125
 Si  2.961373072783E+00  1.892738654019E+01  1.608131088309E+01  0.000000000000E+00  2.015813023605E+00  1.271405056220E+01 -5.935398521575E+01  1.080226259658E+01 -1.265495061567E+01  3.285931123707E+01      126
 Si  3.283701867988E+00  2.063184880777E+01  1.309413294746E+01  0.000000000000E+00 -5.780674626374E+00  1.589038396277E+01  6.384541882413E+00  1.008493238456E+01  1.593110127267E+00 -2.479445410158E+01      127
 O   1.636600822918E+00  1.803416710414E+01  1.571677622449E+01  0.000000000000E+00  1.332334371782E+01  3.467593743332E+01  3.355347160746E+01  3.022007869101E+01  1.211275309767E+01  8.525469908252E+00      128
 O   2.198713693805E+00  1.682375069396E+01  1.340001216444E+01  0.000000000000E+00  1.813026969689E+01  2.754299800917E+00  1.035980391435E+01  2.193782558254E+00  1.816876485329E+00 -7.140958475839E+00      129
 O   9.905660325132E-01  1.538600559355E+01  1.535571484371E+01  0.000000000000E+00  1.362070187760E+01  2.360459825750E+01  3.835155273584E+00  2.355812739301E+01  8.646110511471E+00  1.941113532751E-01      131
 O   4.290428101509E+00  1.801892333615E+01  1.623906147723E+01  0.000000000000E+00 -4.885905361454E+00 -7.408346767303E+00  1.186910857058E+00 -6.676569756946E+00  3.135868228746E-01 -2.051980642789E+01      132
 O   2.998908926440E+00  5.173635779044E+00  8.857929659781E+00  0.000000000000E+00 -8.738605918633E+00 -4.822452297512E+00 -1.290002609192E+01 -8.256658385586E+00 -4.683344971868E+00 -2.069406880038E+01      133
 O   3.298279699805E+00  2.028610320739E+01  1.470428281044E+01  0.000000000000E+00 -4.950164736609E+00 -4.676787353918E+01  3.686310569587E+01 -3.389946466962E+01  8.379971813133E+00 -2.267400448354E+01      134
 O   1.586394122971E+00  2.106782835968E+01  1.271261588421E+01  0.000000000000E+00  2.794932441591E+01  3.484078850851E-01  1.526422732427E+01  2.102340848093E-01 -3.901010686447E+00  6.036787065860E+01      135
 O   8.424895122646E+00  1.616246303910E+01  1.214843506787E+01  0.000000000000E+00 -3.457831330749E+00 -3.180039698616E+01 -6.939218131189E+00 -2.390261044893E+01 -4.812322300099E+00 -6.633562823645E+00      136
 Si  9.150318424695E+00  1.384920879231E+01  2.598045343798E+01  0.000000000000E+00  2.581979034590E+01  9.575606168673E+00  4.940777522222E+01  1.796337927578E+01  1.740142361327E+01  3.907882227453E+01      139
 Si  8.439332692081E+00  1.630569550354E+01  2.410870846491E+01  0.000000000000E+00 -1.319944640232E+01 -1.438828916561E+01 -3.913183150606E+01 -2.127373645161E+01 -1.369822632394E+01 -2.550274550184E+01      140
 O   8.387115863417E+00  1.484033757529E+01  2.497306688338E+01  0.000000000000E+00 -2.460150319115E+00  4.802679013273E+00 -1.492829099161E+01  8.081866305899E+00 -5.013613537102E+00 -4.353041238034E+00      142
 O   8.490762648924E+00  1.241989204362E+01  2.623342987584E+01  0.000000000000E+00 -2.152728050123E+01 -1.193818973062E+01 -2.319154202348E+00 -2.521597305701E+01 -7.506219343636E-01 -3.148910302561E+01      143
 O   6.880175762219E+00  1.691805909033E+01  2.426098558450E+01  0.000000000000E+00  7.000950675254E+00  3.228698966300E-01  2.507596604965E-01  4.630047611247E-01  7.111296168416E-02  1.721503945624E+01      148
 O   1.321929745650E+01  1.553444710038E+01  1.520101662019E+00  0.000000000000E+00 -7.475902424161E+00 -1.228405103337E+01  4.209968750801E+01 -2.477756197639E+01  9.725675242831E-02 -8.785187799723E+00      150
 Ca  5.539000144140E+00  1.135159854426E+01  8.531943223516E+00  0.000000000000E+00 -1.024527679670E-01 -3.196242396295E+00 -2.405109183244E+00 -2.402318805361E+00 -1.561414529335E+00 -2.099661782713E-01      151
 Ca  1.263669636215E+01  2.187574134386E+01  1.321673815629E+00  0.000000000000E+00  1.219991224351E+01  5.396660106988E+00 -2.912853171821E+01  2.181031868849E+00  8.043694611983E-01  2.111961204165E+01      152
 H   7.226821019719E+00  1.878723223279E+01  1.527397849531E+01  0.000000000000E+00  2.918120795414E+01 -2.177623209600E+00 -2.490410659983E+01 -1.770402881178E+00 -1.178327710153E+01  7.586103615572E+01      155
 H   1.155859046786E+01  1.363381877523E+01  3.664255981083E+01  0.000000000000E+00 -1.040384448171E+01 -1.843979138230E+01  8.666840804165E+01 -4.955920052662E+01  2.733882786100E+01 -1.227174979715E+01      156
 H   1.731623740258E+01  1.770369277800E+01  1.487321391351E+01  0.000000000000E+00 -2.118173083132E+01  6.196557755192E+00 -5.847499376447E+01  5.205847739006E+00 -6.807989719154E+01 -2.165567764093E+01      159
 H   1.666378752231E+01  3.830386432996E+00  1.123629252564E+01  0.000000000000E+00  4.062870509534E+00  2.872529552689E+00 -5.307206950634E+00  8.426455896077E+00 -7.870760641062E+00  9.339031752478E-01      160
 H   1.697448146050E+01  1.697234851555E+01  2.094786674065E+01  0.000000000000E+00 -5.837496065201E+01 -3.084405923813E+00 -2.351301530614E+01 -3.806881776374E+00 -1.905307339099E+01 -5.836762548967E+01      164
 H   1.790827105082E+01  6.849814842085E+00  4.073324720261E+00  0.000000000000E+00 -1.861964514030E+01 -6.918109996874E+00  2.497884297557E-01 -4.278077379476E+00  3.151893114143E+00 -7.121911505274E+00      168
 H   5.712955137192E+00  2.175601737844E+01  3.030541977208E+01  0.000000000000E+00 -2.502795535652E-01  1.416586385576E+01 -1.279598071997E+00  1.973258446688E+01 -2.412204296767E-01 -9.531120385289E-01      169
 Si  1.227274077998E+01  8.011553987833E-01  1.996687633196E+01  0.000000000000E+00 -3.212888579911E+00 -1.289390349175E+02 -7.789552765050E+00  4.390286474499E+01 -4.787887714035E+00 -5.877734373521E+01      177
 Si  1.062561995738E+01  3.438819249954E+00  1.883571219328E+01  0.000000000000E+00  3.053551367002E+01  5.582197456136E+00 -4.258748669472E+00  2.280412607187E+01 -2.402449368067E+00  9.483631873167E+00      178
 Si  8.211178489103E+00  4.241057327316E+00  2.028041215690E+01  0.000000000000E+00 -2.479507683489E+01  7.003046437528E-01  1.215515640042E-01  3.348803308840E+00  4.921406823228E-02 -1.280660777640E+01      179
 O   1.129064393116E+01  1.896015129443E+00  1.909019044626E+01  0.000000000000E+00 -9.581322039794E+00  3.672238350382E+00  4.253274547480E+00  7.185773006763E+00  2.515543707762E+00  4.966154302703E-01      180
 O   1.229714563682E+01  1.291634570598E+00  2.165262801134E+01  0.000000000000E+00  2.384751586512E+01 -3.654308463839E+00 -6.318239268675E+01  1.105944054711E+01 -3.588308468351E+01  1.143380618862E+00      182
 O   1.107916306131E+01  4.124252208337E+00  1.732494768740E+01  0.000000000000E+00  9.819309154936E+00 -6.080147016063E+00  3.515199049368E+00 -2.535057239076E+01  2.247941186526E+00  3.635846627473E+00      184
 O   1.139267205495E+01  4.437730260496E+00  1.993004433104E+01  0.000000000000E+00 -7.543720236185E-01 -6.231243295083E+00  3.911837029757E+00 -2.803597674862E+01  2.236135337794E+00 -2.947577809253E-01      185
 O   9.099637636346E+00  3.936795991418E+00  1.892912644756E+01  0.000000000000E+00 -1.224197469679E+01 -4.888807097885E+00  5.004009005939E+00 -2.295658907578E+01  2.405534603469E+00 -5.275206984478E+00      187
 O   6.695330004463E+00  4.817740576649E+00  1.980060695751E+01  0.000000000000E+00  1.101999936679E+01 -4.741221127208E+00  1.162607581966E+01 -1.948611689336E+01  3.931213544949E+00  7.929631260692E+00      188
 Ca  1.144316969016E+01  3.222154528486E+00  2.216652103341E+01  0.000000000000E+00 -9.809943955077E+00  1.532500275754E+00  1.311432478565E+01  2.077870635726E+01  6.770094579475E+00 -2.571981355466E+00      190
 O   1.555778050839E+01  2.053621913209E+01  8.517148967579E+00  0.000000000000E+00  1.807889301143E+01  1.475449532014E+01 -9.853576354074E+00  6.119248814733E+00 -1.799895466463E+01  2.386407934911E+01      193
 O   4.660916044686E+00  1.231911841202E+01  1.339500189459E+01  0.000000000000E+00  1.453558853450E+00 -2.510719346992E-02 -4.064808913625E+00 -2.729991650776E-02 -1.415792095240E+00  3.921243211993E+00      194
 Si  1.812940660798E+01  1.768589983219E+00  1.958027994996E+01  0.000000000000E+00 -1.581702270510E+01  4.918242044395E+00  5.899588344051E+01  4.148209139081E+01  5.462436501539E+01 -4.901226415785E+00      196
 Si  1.565082984281E+01  3.487882981058E+00  1.980664587481E+01  0.000000000000E+00  1.626149991614E-01  4.949246122102E+00 -2.059046597771E+01  2.856423571105E+01 -1.627018938180E+01  5.301666532334E-02      197
 O   1.915258655562E+01  2.924864228206E+00  2.013975380623E+01  0.000000000000E+00  8.107499180434E+00 -2.422680273600E+00 -1.219781157054E+01 -2.418275875560E+01 -1.159992540830E+01  9.128691190838E-01      202
 O   1.664828325488E+01  2.311101972991E+00  2.016666956950E+01  0.000000000000E+00  4.132456179113E+00 -2.076337825868E+00  1.312667333550E+01 -2.177587398539E+01  1.083652286416E+01  6.110922523913E-01      205
 O   1.473879407937E+01  4.229229998687E+00  2.094786317321E+01  0.000000000000E+00  3.300660231883E+00 -2.415552967476E+00 -1.619142970546E+01 -1.196451199534E+01 -1.139219529487E+01  9.471094577329E-01      206
 Ca  1.332299474562E+01  4.954402907678E+00  1.910647108644E+01  0.000000000000E+00  1.441148179063E+00  3.981032520402E+00 -4.722322416997E+00  1.535270428397E+01 -3.292888386565E+00  5.359177020686E-01      209
 O   2.290711698369E+01  1.929669098432E+01  1.445237992103E+01  0.000000000000E+00  1.451685263874E+01 -3.285046224721E+01  2.202983131402E+01 -2.460356344846E+01  3.491742715032E+01  1.222882912913E+01      210
 O   1.306875331753E+01  1.754172162197E+01  4.132694756551E+00  0.000000000000E+00 -1.005033653675E+00 -2.842109381258E+01 -6.476192436067E+00 -6.656233443246E+00 -2.209429210069E+01 -1.349020839642E+00      212
 Si  1.292354847191E+01  3.927589541910E+00  1.429006337358E+01  0.000000000000E+00  1.991081175619E+01 -9.388151222633E-01  5.080546039491E+00 -3.313646521217E+00  4.594709014835E+00  6.056898550941E+00      213
 Si  1.149320911523E+01  5.344162771438E+00  1.630165695084E+01  0.000000000000E+00 -1.254227069114E+01 -2.246897981543E+00  5.478259814467E+00 -6.853863114798E+00  3.862354963371E+00 -5.831960023078E+00      214
 Si  9.362738844786E+00  6.631080153260E+00  1.447351137050E+01  0.000000000000E+00 -2.794305549111E+01  4.308684207722E+00  2.528222880611E+01  9.404469321896E+00  1.635476697163E+01 -1.979043138555E+01      215
 O   1.274167593369E+01  5.358705717970E+00  1.525385406570E+01  0.000000000000E+00 -1.108914505505E+01 -7.722181043588E+00  2.926791134687E+00 -2.198161811962E+01  2.444773891448E+00 -4.663708708583E+00      216
 O   1.361859601023E+01  2.669402332607E+00  1.504433573672E+01  0.000000000000E+00 -6.641343677121E+00  4.898261990154E+00 -1.676845442776E+01  1.388299418169E+01 -1.517932134486E+01 -1.944351303569E+00      217
 O   1.376623131710E+01  4.667269268214E+00  1.314719276260E+01  0.000000000000E+00  6.595102598326E-02  7.647691130556E-02 -1.124606906359E+01  2.154271881569E-01 -1.177559277733E+01  2.235987393272E-02      218
 O   1.139645305132E+01  3.691737232606E+00  1.365612210400E+01  0.000000000000E+00 -1.704731110564E+00  3.524726999961E+00  9.532965268020E+00  1.385951816429E+01  7.955552117176E+00 -5.723251233103E-01      219
 O   1.186920162791E+01  6.408652226988E+00  1.743721660853E+01  0.000000000000E+00  1.091391617202E+01  9.850011001271E+00  2.144628427012E+01  2.680076392696E+01  1.459810231680E+01  5.892855760119E+00      220
 O   1.006950226059E+01  5.692356772189E+00  1.563317725249E+01  0.000000000000E+00 -5.488872213041E+00  1.121278398635E+00 -4.012594599260E+00  3.079417657179E+00 -2.584556532271E+00 -3.102896062290E+00      222
 O   1.034039775882E+01  6.977822550114E+00  1.334585881725E+01  0.000000000000E+00  7.213314861620E+00  7.505120706983E+00 -1.830615881331E+01  1.435437497048E+01 -1.418364798832E+01  4.867630073472E+00      223
 O   2.045847359774E+01  2.054414055761E+01  1.200608509874E+01  0.000000000000E+00 -1.513957195355E+01  1.424826058292E+01  3.027933206000E+00  8.326745457562E+00  5.159624560480E+00 -1.520296676631E+01      224
 Ca  1.615893764742E+01  6.421757635255E+00  5.862531649868E+00  0.000000000000E+00 -5.054209256404E+00 -1.308336752868E+00  4.333051183941E+00 -1.194402850127E+00  1.194321977024E+01 -2.008604005455E+00      225
 Ca  1.671306439089E+01  3.488708452952E+00  1.655945596364E+01  0.000000000000E+00  1.910782335315E+00 -5.415705790886E-01  2.098192697713E-01 -1.289605254935E+00  2.117655902366E-01  1.841981624571E-01      226
 Si  2.083032562917E+01  2.534041797294E+00  2.009073644030E+01  0.000000000000E+00 -5.373422356509E+01 -5.588021903068E+00 -6.563600756297E+01 -5.025048303032E+01 -6.805222967302E+01 -5.340634048197E+00      228
 Si  2.251698997518E+01  5.080066584547E+00  2.069618288036E+01  0.000000000000E+00 -4.037205561939E+00  1.011140679593E+00  5.149832187141E+00  4.119385459690E+00  5.602903704611E+00 -9.108354665861E-01      229
 O   2.110706249118E+01  1.338727272054E+00  2.117113443144E+01  0.000000000000E+00  9.218146515845E+00  1.578157173146E+01 -6.266165452590E+00  4.405356206758E+00 -6.247201642225E+00 -4.823238765186E+00      230
 O   2.127817427351E+01  3.943830077651E+00  2.051539567543E+01  0.000000000000E+00  4.491734730737E+01  1.196558310514E+01 -5.893929931038E+00  6.196046260911E+01 -6.113070896249E+00  8.271633978693E+00      236
 O   2.316602669679E+01  4.151531736169E+00  2.202847603584E+01  0.000000000000E+00 -1.047668731739E+01  7.258227441651E+00  1.303725144096E+01  4.041317936497E+01  1.371049519915E+01 -1.936450784167E+00      237
 H   1.252022480438E+01  1.675732325050E+01  3.813349128519E+00  0.000000000000E+00  3.666475088911E+00  1.184794384600E+00  4.981563126566E+00  1.434388711211E-01  1.526051386054E+01  4.907284750451E+00      243
 H   1.860933425138E+01  1.867321664330E+01  6.639919613495E+00  0.000000000000E+00  1.476625172719E+01 -2.049689761329E+01  8.262366268417E+00 -7.288393589496E+00  2.315647546151E+01  1.481694152981E+01      247
 H   1.239212729983E+01  5.845126929129E+00  7.173747325003E+00  0.000000000000E+00 -2.374716131201E+01 -1.570189430296E+01  2.335896330870E+00 -1.927099678400E+01  4.035091198496E+00 -1.120107699968E+01      248
 H   4.889016727625E+00  8.567951303456E+00  8.202101683052E+00  0.000000000000E+00 -2.654472566248E+00  3.959918527846E-01 -4.999499164575E+00  3.790830884962E-01 -2.980045357870E+00 -4.651935747215E+00      249