     8448
Lattice="     49.70      0.00      0.00      0.00     49.70      0.00      0.00      0.00     49.70" pbc="T T T" config_type=md Properties=species:S:1:pos:R:3:charge:R:1:forces:R:3:id:I:1
 Si  1.053495187579E+01  1.772439668656E+01  1.595554157997E+01  0.000000000000E+00 -3.839635031429E-01 -1.028261660802E+01  5.927959452616E+00 -9.256434492043E+00  3.914048748639E+00 -6.459945449306E-01        1
 Si  1.238855693285E+01  2.018617044910E+01  1.697934733541E+01  0.000000000000E+00 -2.446015484754E+01  2.123523960154E+01  4.085354796851E+01  1.786175886379E+01  2.980777146017E+01 -3.985588132987E+01        2
 Si  1.093985397161E+01  2.244716466681E+01  1.787074468179E+01  0.000000000000E+00  1.216943816279E+01  1.610838345920E+01 -3.967484200791E+01  1.282428370392E+01 -2.428757086746E+01  2.497011231151E+01        3
 O   1.101826527349E+01  1.938354059551E+01  1.664421318606E+01  0.000000000000E+00  2.034351316748E+00 -3.446093352652E+01 -1.665760616365E+01 -2.959083359306E+01 -1.102713126063E+01  3.578869300649E+00        4
 O   8.942851474459E+00  1.777157575134E+01  1.562845598397E+01  0.000000000000E+00 -2.128240121904E+00  1.447293114471E+01  9.502088822839E+00  1.272760336613E+01  5.437246592174E+00 -4.229319993904E+00        5
 O   1.116664135366E+01  1.730572715500E+01  1.457585467966E+01  0.000000000000E+00  1.196192600762E+01  2.674126948134E+00 -1.480136788465E+01  2.252299798896E+00 -1.133940824356E+01  1.853823555176E+01        6
 O   1.096472935278E+01  1.685228943069E+01  1.724801803826E+01  0.000000000000E+00  2.624778108212E+00 -2.989076511746E+01  2.889457042533E+01 -3.059266564605E+01  1.836855363763E+01  4.034164359898E+00        7
 O   1.280878777390E+01  2.109858299193E+01  1.566600112969E+01  0.000000000000E+00  3.232770943758E+00 -1.618550834440E+00  1.206857025245E+01 -1.201797258635E+00  9.867467378456E+00  5.325007116580E+00        8
 O   1.374206875496E+01  1.984720544346E+01  1.786689607078E+01  0.000000000000E+00  2.800177689102E-01 -2.396947502614E+01 -3.497992043084E+01 -2.157785489667E+01 -2.690430781593E+01  4.044201994970E-01        9
 O   1.176428135489E+01  2.116133336491E+01  1.837985478564E+01  0.000000000000E+00  7.174629082867E+00 -2.030223435399E+00 -4.227390227475E+01 -1.763367708526E+00 -2.705799834272E+01  1.290556670757E+01       11
 O   1.920637232738E+01  1.765482228254E+01  2.044944628984E+01  0.000000000000E+00  1.250752501499E+01 -3.288420606897E+01  3.063272500960E+01 -3.808952562815E+01  2.877063337549E+01  1.149712853475E+01       13
 Ca  2.393655384365E+00  1.672216335339E+01  1.761394362878E+01  0.000000000000E+00 -3.724416383542E+00 -1.274399619862E+01 -6.778775402472E+00 -1.342362384006E+01  1.020981434976E-01  5.438521070309E+00       14
 Ca  2.121131066391E+01  1.398679283959E+01  1.887558085579E+01  0.000000000000E+00  4.284706712344E-01 -2.098227212525E+01 -5.987946382191E+00 -2.831618217134E+01 -6.728915624998E+00  2.825346632913E-01       15
 O   6.706175425038E+00  3.911330743608E+00  1.552171463415E+01  0.000000000000E+00  1.174742024586E+01  3.170924463118E+00  8.798197963018E+01  1.355426870741E+01  3.801271982827E+01  6.765399804270E+00       16
 O   9.638710858820E+00  1.591353714303E+01  1.971877850645E+01  0.000000000000E+00 -8.722679152114E+00  3.565906767666E+00  1.086775254972E+01  4.418585578697E+00  5.312252200496E+00 -1.440116637038E+01       18
 Si  2.042359890532E+01  1.970047983060E+01  1.813407034615E+01  0.000000000000E+00 -2.213782978916E+01  5.153761884303E+01 -4.418982902272E+01  4.743979911194E+01 -4.976904392821E+01 -2.135401656076E+01       19
 Si  1.819318842292E+01  2.149026587765E+01  1.844267884843E+01  0.000000000000E+00 -4.449757853370E+01  1.362815022297E+01 -1.405821328196E+01  1.169550899422E+01 -1.386803539932E+01 -5.256169349603E+01       20
 O   1.890576837504E+01  2.013551022106E+01  1.888198638053E+01  0.000000000000E+00  3.222898325065E+01 -5.410290212171E+01 -9.673412965476E+00 -5.073475912921E+01 -9.685596697071E+00  3.432534498384E+01       22
 O   2.127061246428E+01  2.114235875971E+01  1.813346211361E+01  0.000000000000E+00 -1.277517171417E+01 -2.998568926774E+01 -7.538284981759E+00 -2.571824489721E+01 -8.842433810363E+00 -1.269814228676E+01       23
 O   2.017162947439E+01  1.935085688048E+01  1.649504604316E+01  0.000000000000E+00  6.404677419645E+00  3.472440435466E-01  3.091709351610E+01  2.959975634097E-01  3.780820939815E+01  6.144074591027E+00       24
 O   2.128858837025E+01  1.858642886466E+01  1.889867778450E+01  0.000000000000E+00 -1.303487929295E+00 -3.584710129685E+01  3.864296547805E+01 -3.644932664851E+01  4.352972175350E+01 -1.138036268654E+00       25
 O   1.833468985971E+01  2.238934215893E+01  1.972500811505E+01  0.000000000000E+00  3.025845106327E+01  4.339412306985E+01  6.002946988917E+01  3.823021791451E+01  5.579828948315E+01  3.695000129472E+01       26
 O   2.163739170984E+01  1.699382594313E+01  2.110285803187E+01  0.000000000000E+00  5.670917279497E+01  8.263626409932E+00  6.474558981062E+01  1.026173479361E+01  6.638559033575E+01  4.453890860692E+01       27
 O   1.871233047921E+01  2.203882417357E+01  1.701112135204E+01  0.000000000000E+00  1.856986096850E+01 -4.363092546099E+00 -2.247802881483E+01 -3.367743042340E+00 -2.472595985883E+01  2.187102783734E+01       29
 Ca  4.737501301678E+00  1.038831218307E+01  1.470901262004E+01  0.000000000000E+00 -8.310234977772E+00  1.265246449682E+01 -4.113815096997E+00  1.791486977660E+01 -1.324983863998E+00 -1.822254175068E+01       32
 Si  1.331064519724E+01  1.994082423435E+01  1.223380948226E+01  0.000000000000E+00  2.033186024159E+01 -7.532221627688E+00 -1.295841765061E+00 -4.621060959584E+00 -1.409903431267E+00  3.045938385608E+01       37
 Si  1.222526070980E+01  2.198300083597E+01  1.445389440356E+01  0.000000000000E+00  1.643260663868E+01  6.100135423564E+01 -3.375211074850E+01  4.010858841226E+01 -2.854790147801E+01  2.954849095248E+01       38
 O   1.301534688787E+01  2.165034910428E+01  1.296407885177E+01  0.000000000000E+00 -3.113711509171E+00 -5.305033966955E+01  8.096136635683E+00 -3.176617537558E+01  8.128153798648E+00 -5.179496310346E+00       40
 O   1.426070005645E+01  1.889441224010E+01  1.319165493598E+01  0.000000000000E+00 -1.544553077790E+01 -1.600638045585E+01  4.195913172397E+01 -1.117529590572E+01  4.535947878023E+01 -2.046422858832E+01       41
 O   1.470598827741E+01  2.031935213944E+01  1.131541050495E+01  0.000000000000E+00 -3.642949877976E+01  1.399803907432E+01  3.109559290552E+00  7.795207116020E+00  4.041315377356E+00 -5.033485679479E+01       42
 O   1.212127903570E+01  1.897329156597E+01  1.168455377353E+01  0.000000000000E+00  3.641379835741E+00  2.795241596744E+01  1.265286396467E+00  1.721427757203E+01  1.312578106867E+00  5.699807843914E+00       43
 O   1.264172180206E+01  2.374221444380E+01  1.447198070196E+01  0.000000000000E+00  8.960454710891E-02 -5.689809217793E+01 -5.726674149916E+00 -3.468202571947E+01 -5.002426616316E+00  1.682848591283E-01       44
 O   1.064416337673E+01  2.203073713666E+01  1.421395713946E+01  0.000000000000E+00 -1.312579750586E+01  1.246812281467E+00 -1.174976459108E+01  8.044277510911E-01 -8.798845579629E+00 -2.716709470966E+01       46
 O   7.937348049281E+00  2.163236172102E+01  1.502455699993E+01  0.000000000000E+00  1.177781994365E+01  1.121728945834E+01 -4.181242443727E+00  7.790864771260E+00 -2.208915481132E+00  3.209914189529E+01       47
 O   1.802184377753E+01  1.603450323307E+01  9.527327691269E+00  0.000000000000E+00  4.839077210218E+00 -4.848437991943E+00  5.866996756922E+00 -2.880828727189E+00  1.109798071640E+01  4.305452878750E+00       48
 Ca  6.625753484143E+00  2.143281008450E+01  1.328920624841E+01  0.000000000000E+00  1.537013424607E+00 -4.039978472745E+00 -1.155885232247E+01 -2.504949512069E+00 -5.763030885118E+00  4.971889899882E+00       49
 Si  2.063364383103E+01  2.081851626415E+01  2.297792912773E+01  0.000000000000E+00 -3.041506029757E+01 -1.392902528401E+01  1.172331309415E+01 -1.537382163711E+01  1.052726142377E+01 -3.068757184457E+01       51
 Si  1.951169188568E+01  2.282283300025E+01  2.096446755787E+01  0.000000000000E+00 -7.174480894360E+01 -5.648041378480E+01 -7.935455514564E+00 -5.188145584002E+01 -7.385551888944E+00 -8.391992876619E+01       52
 O   1.940263201135E+01  2.160295348292E+01  2.227201848170E+01  0.000000000000E+00 -2.250699903415E+01  4.276901774039E+01 -3.542216338825E+01  4.409361684323E+01 -3.085859513959E+01 -2.505936580617E+01       54
 O   1.973037985850E+01  1.925130158797E+01  2.291067679994E+01  0.000000000000E+00  2.295333242958E+01  9.656393729653E+00  3.329644708973E+01  1.149192509307E+01  2.867447150319E+01  2.239599684445E+01       55
 O   2.206514997118E+01  2.031067032401E+01  2.245456714821E+01  0.000000000000E+00  2.705147304189E+00  8.507191279446E+00  1.542367097495E+00  9.405169537963E+00  1.515618675355E+00  2.490051286533E+00       56
 O   2.069037022552E+01  2.177304142132E+01  2.437921008645E+01  0.000000000000E+00  5.962775744583E+00 -2.484966563330E+01 -2.166239046864E+01 -2.782409711760E+01 -1.838463498927E+01  6.274791695736E+00       57
 O   1.654912973201E+01  2.152558406229E+01  1.818721865263E+01  0.000000000000E+00  5.260324568444E+00 -6.379410922910E+00 -4.431074414879E+00 -5.390039173579E+00 -4.031975792706E+00  6.842145812293E+00       58
 O   1.426566233551E+01  1.261599679620E+01  1.172793266144E+01  0.000000000000E+00 -3.133096036017E+00  4.232878704506E+01  2.708451660729E+01  3.934918279736E+01  3.294515577418E+01 -2.770788248240E+00       59
 H   3.503354797542E+00  7.249226606618E+00  1.429778269044E+01  0.000000000000E+00  3.111989316687E+00 -1.921432131278E+00  2.794240869912E+01 -3.789675858989E+00  6.712469790341E+00  6.876106122708E+00       70
 H   1.404214931571E+01  1.927416061542E+01  1.710265104096E+01  0.000000000000E+00  1.460368409676E+01 -1.583996919588E+00  1.557155278437E+01 -1.405537035112E+00  1.278503950948E+01  2.004491951548E+01       73
 H   1.680016855549E+01  1.311718341345E+01  1.539118140552E+01  0.000000000000E+00 -2.524613151313E+00  1.805827530029E+00 -8.876222321984E-01  2.118886214037E+00 -9.688796929641E-01 -1.971159613335E+00       83
 Si  1.953325005740E+00  2.046629311708E+01  2.133567425931E+01  0.000000000000E+00 -2.543868355207E+00  7.565773873668E+01 -4.672417466588E+01  7.887157970658E+01 -3.417398760825E+00 -3.193779682695E+01       89
 Si  2.511796076545E+00  2.065345038078E+01  1.819002724750E+01  0.000000000000E+00 -8.426858494606E+00  3.251344447721E+01  2.940865323642E+01  2.863543040253E+01  2.237943287208E+00 -3.020896457923E+01       90
 O   1.474556171175E+00  2.059004386280E+01  1.960231683944E+01  0.000000000000E+00  1.608041975536E+01 -1.461575032915E+01  1.204229149232E+01 -1.391461672968E+01  5.148954334469E+00  3.731222379724E+01       92
 O   1.612703616927E+00  1.908978436871E+01  2.201976318694E+01  0.000000000000E+00  2.678065634574E+00 -5.029366766912E+00  1.241795936606E+01 -5.801294715992E+00 -2.867441794652E-01 -1.002340730551E+01       95
 O   1.844830437935E+00  1.956555374356E+01  1.711685701233E+01  0.000000000000E+00  4.154395021669E+00  5.624376311687E+00  5.350524398185E+00  4.920466160709E+00  3.481610077373E+00 -1.648076705176E+01       96
 O   4.025430512146E+00  2.032872989894E+01  1.848930145544E+01  0.000000000000E+00  2.085950329591E+00 -8.699231484946E+00  6.822383696871E+00 -7.912088662473E+00  1.482952942507E+00  1.024426305675E+01       97
 O   1.153867302616E+01  1.492550311197E+01  2.072294751252E+01  0.000000000000E+00  1.055408963957E+01  7.753471739294E+00  3.022678366217E+01  1.076511704080E+01  1.683047129755E+01  1.365192491392E+01       98
 O   3.734584076460E+00  1.224838046911E+01  2.011593508619E+01  0.000000000000E+00  1.740787908905E+00  9.680348483158E+00  5.258112189807E+00  1.589836813038E+01  9.504369620063E-01  6.357624675594E+00      101
 Ca  2.139860674823E+01  2.355413796654E+01  1.844790846586E+01  0.000000000000E+00  3.206038812953E+01 -5.820767141280E+00  1.863331426986E+01 -4.558900842644E+00  2.161366776156E+01  3.528990527975E+01      102
 O   1.633605986599E+01  3.780487936636E+00  1.113942057311E+01  0.000000000000E+00  1.100929346566E-01 -1.175887730340E+01 -1.380049210078E+01 -3.464819408119E+01 -2.023854505347E+01  2.547768646739E-02      105
 Si  5.411283477068E+00  1.597617024158E+01  1.953996364496E+01  0.000000000000E+00 -7.331334503256E+00 -3.055367273504E+00 -9.241095845754E+00 -3.736925968084E+00 -2.559175143247E+00 -2.164489231036E+01      107
 Si  8.404344526701E+00  1.668619175937E+01  2.040031080598E+01  0.000000000000E+00  1.896568938036E+00  1.594271049709E+01 -3.759094269886E+01  1.949134073974E+01 -1.548639315005E+01  3.765494487333E+00      108
 Si  7.639737346835E+00  1.947317442253E+01  1.959216647658E+01  0.000000000000E+00  1.471300390969E+01 -2.798692191630E+00  1.779502028135E+01 -2.815793775856E+00  6.938961099255E+00  3.750245308256E+01      109
 O   6.971279242879E+00  1.655769366185E+01  1.948651248595E+01  0.000000000000E+00 -1.207806675728E+00 -8.318897833675E+00  3.781308077153E+00 -9.790391694391E+00  1.352758967424E+00 -2.868697730028E+00      110
 O   4.509719407067E+00  1.639476176115E+01  1.817449874719E+01  0.000000000000E+00  6.260482461442E+00  2.265125044768E+00  2.696263375968E+01  2.511016194570E+00  6.690358530544E+00  2.275953539468E+01      111
 O   4.612996247545E+00  1.647916585798E+01  2.089031412110E+01  0.000000000000E+00  2.243329181804E+00  1.194758815796E+01 -1.268477610087E+01  1.514572228717E+01 -2.801050487562E+00  8.013922335329E+00      112
 O   5.451707805193E+00  1.426201389962E+01  1.971332171307E+01  0.000000000000E+00  4.158921336867E+00  6.756555059782E+00 -1.480336367140E+01  9.339083842085E+00 -4.093861726862E+00  1.088000238335E+01      113
 O   7.992239682892E+00  1.652212772590E+01  2.196283400291E+01  0.000000000000E+00 -1.813491437388E+00 -1.544720368275E+01 -5.437095500502E+00 -2.053393944908E+01 -1.978550236870E+00 -3.748978802836E+00      114
 O   1.191604516533E+01  1.367199283865E+01  3.506351910876E+01  0.000000000000E+00  1.974875422162E+01 -1.128004015593E+01  1.132227481074E+02 -2.892906017598E+01  3.847780868786E+01  2.265892941359E+01      115
 O   8.695941215675E+00  1.836113066954E+01  2.041542251476E+01  0.000000000000E+00 -1.163695080307E+01  5.863848226915E+00 -3.128556475643E+01  6.519911070264E+00 -1.332607404155E+01 -2.457095430969E+01      117
 O   6.175392605035E+00  1.971608484481E+01  2.018061500052E+01  0.000000000000E+00  8.015029309355E+00  1.201829440352E+01 -1.892459387987E+01  1.230145712140E+01 -5.791042398659E+00  2.558946580467E+01      118
 O   6.414223626543E+00  9.564698104419E+00  2.218243903273E+01  0.000000000000E+00  2.834994715115E+00 -7.132503711967E+00 -8.645637429861E+00 -1.654169603830E+01 -2.499952858534E+00  4.227459183912E+00      119
 Ca  2.340593909402E+01  1.859753796923E+01  2.045446598791E+01  0.000000000000E+00 -3.777676490130E-01  1.635911443077E+00  6.764369526004E+00  1.799254020990E+00  7.740432882907E+00 -3.001609193224E-01      120
 Ca  3.422269102992E+00  1.214963920146E+01  1.783447265919E+01  0.000000000000E+00 -3.287649513179E+00  6.758279016160E+00 -3.268720095655E+00  9.920487377301E+00 -7.095953863312E-02 -5.881023238570E+00      121
 Si  8.998441471371E-01  1.705357444325E+01  1.394350979887E+01  0.000000000000E+00 -2.415435406460E+02  4.498188026875E+00  2.875283416973E+01  3.677852349289E+00 -1.311312544616E+02  3.148339819585E+00      125
 Si  2.055172332145E+00  1.923636695866E+01  1.551259410061E+01  0.000000000000E+00 -7.075184724023E+00 -5.699269101484E+01  1.379931569685E+01 -4.596005494771E+01 -1.074236245380E+00  3.835539754529E+01      126
 Si  3.363921686493E+00  2.073261809417E+01  1.332873346602E+01  0.000000000000E+00  1.740513653667E+01  5.235930333332E+00 -1.755718113663E+01  3.366112255704E+00 -2.935438101376E+00  1.017580553112E+02      127
 O   7.129073045568E-01  1.871089138585E+01  1.472661097935E+01  0.000000000000E+00  4.331131341508E+01 -3.712805026191E+01  7.442912607027E-01 -2.922203658574E+01  3.706839915936E+01  2.248614124241E+01      128
 O   2.283957535211E+00  1.674441547974E+01  1.313778971738E+01  0.000000000000E+00  1.898465813691E+01  1.587550046638E+01 -3.207483315822E+00  1.245603270164E+01  1.572171964539E+00 -6.836356308670E+00      129
 O   9.933033262578E-01  1.587947619434E+01  1.525969600916E+01  0.000000000000E+00  5.872779952792E+00  2.181102958209E+01 -1.070343337544E+00  2.095973928838E+01  9.006341959429E+00 -8.882573761741E+00      131
 O   3.341247771600E+00  1.808526862859E+01  1.566539500062E+01  0.000000000000E+00 -6.657518025611E+00  2.687519019975E+01 -9.147573421816E-01  2.327919362672E+01 -6.252231138962E-01 -3.284256750135E+01      132
 O   2.442482978397E+00  4.361900002715E+00  9.054929998533E+00  0.000000000000E+00  5.016372656240E+00 -1.319934037873E+01 -4.826876458522E+01 -2.740069765052E+01 -1.499647237842E+01 -6.534033890115E+00      133
 O   2.506919096902E+00  2.050142446887E+01  1.465996584499E+01  0.000000000000E+00  1.105373666519E+01  3.256975431120E+01  3.854951326549E+00  2.328967367643E+01  7.255103306860E-01  1.069418898369E+01      134
 O   2.407743420827E+00  2.049025346284E+01  1.206868175303E+01  0.000000000000E+00  7.535673268164E-01 -2.312978414090E-01 -9.196754697985E+00 -1.362335533423E-01 -2.797697039518E+00 -2.856155695515E+01      135
 O   8.313185916757E+00  1.520664120847E+01  1.270869754079E+01  0.000000000000E+00 -7.176966364864E-01 -3.433747166456E+00 -3.221483135259E+01 -2.869697099564E+00 -2.107280320831E+01 -1.312824632681E+00      136
 Si  8.808989937181E+00  1.452913644469E+01  2.541660534674E+01  0.000000000000E+00  1.323498282795E+01 -1.852345353504E+00  4.207791567818E+01 -3.240408058324E+00  1.458353429696E+01  2.182916233550E+01      139
 Si  8.887919638938E+00  1.682052736751E+01  2.325694956402E+01  0.000000000000E+00 -1.595137634947E+01  1.803971065645E+01  3.477570208509E+01  2.494265677407E+01  1.328994779255E+01 -3.018823001733E+01      140
 O   8.512992244549E+00  1.563211127015E+01  2.432822612487E+01  0.000000000000E+00 -2.547491674629E+00  6.559195842394E+00 -4.065995123604E+00  1.020806447020E+01 -1.422782934356E+00 -4.677870268598E+00      142
 O   7.628428698843E+00  1.344898002284E+01  2.549312958429E+01  0.000000000000E+00  9.107378148971E+00  5.423095055594E+01 -1.923570822486E+01  1.027971376010E+02 -5.755991165380E+00  1.605637957979E+01      143
 O   7.988438904109E+00  1.813423841254E+01  2.402993118904E+01  0.000000000000E+00  3.049302668359E+01 -2.765836005222E+01 -3.890349508414E+01 -3.665047705543E+01 -1.293296227905E+01  6.922101081800E+01      148
 O   1.285262269098E+01  1.619979617156E+01  1.583197128810E+00  0.000000000000E+00  2.806319133494E+00 -1.794611801587E+00  2.530713249735E+01 -2.530094895282E+00  3.457978243997E+00  3.537161173093E+00      150
 Ca  3.907690891737E+00  1.157521903458E+01  7.108964385932E+00  0.000000000000E+00  1.891410304449E+00 -1.824064210886E+00  3.681414259834E+00 -1.120255908256E+00  3.048057770595E+00  1.221849684927E+01      151
 Ca  1.316774735283E+01  2.167473095448E+01  1.644743323030E+00  0.000000000000E+00 -2.059901563835E+00  1.768207263795E+01 -5.082346804780E+01 -6.999365187753E+00 -1.099455371793E+01 -3.390694778120E+00      152
 H   7.206583939535E+00  1.749747625909E+01  1.575324517858E+01  0.000000000000E+00 -1.738490713862E+01 -2.541784152521E+01  1.397452040498E+01 -2.288407102418E+01  6.392876716610E+00 -4.221029026746E+01      155
 H   1.131267233039E+01  1.359459359195E+01  3.434400463826E+01  0.000000000000E+00 -1.406690610257E+01 -1.236504459364E+01 -2.211686938481E+01 -3.123779655522E+01 -7.285140418531E+00 -1.690439411445E+01      156
 H   1.448504265701E+01  1.337116571521E+01  1.241547413857E+01  0.000000000000E+00 -1.672018797387E+01 -2.595079921544E+01 -2.727014867495E+01 -2.409599008768E+01 -3.181588253587E+01 -1.543443188135E+01      159
 H   1.626774732678E+01  2.662456636978E+00  1.108724687364E+01  0.000000000000E+00  4.785320402931E+00  1.013247811157E+01  4.825831111032E+00  4.187090601641E+01  7.080693886469E+00  9.157620171254E-01      160
 H   1.653181312879E+01  1.715447619236E+01  1.480919436264E+01  0.000000000000E+00  1.200155948461E+01 -9.132452333773E+00  7.171987163253E+00 -7.883905057886E+00  8.006239140474E+00  1.245359264867E+01      164
 H   1.805704113051E+01  5.853234962628E+00  6.049329358192E+00  0.000000000000E+00  5.153001834080E+01  6.388813196084E+00 -7.477222411364E+00  6.602850471207E+00 -2.231925303275E+01  1.670358409206E+01      168
 H   5.689475903107E+00  2.020175980691E+01  3.393106652963E+01  0.000000000000E+00 -1.450974629908E+01 -4.633556041546E+01  3.728688788769E+01 -7.782564480382E+01  6.252171588936E+00 -5.152010740272E+01      169
 Si  1.227425156182E+01  5.227483221494E-01  1.990404211020E+01  0.000000000000E+00  2.174052530393E+01 -1.556646914359E+02  3.808899837667E+01  5.956175588002E+01  2.348839221825E+01 -5.724803239450E+01      177
 Si  1.130112197442E+01  3.217457709188E+00  1.883944510121E+01  0.000000000000E+00 -8.574276655153E+00  4.184515975601E+00  1.710344378573E+01  1.837769672533E+01  1.025975570761E+01 -2.712230695539E+00      178
 Si  8.325517885024E+00  3.968881024666E+00  1.964801842594E+01  0.000000000000E+00  1.812063575776E+00  1.510338973856E+00 -3.982648084603E+01  7.476960836901E+00 -1.687580250553E+01  8.638339188873E-01      179
 O   1.190070746452E+01  1.621877517289E+00  1.861886209392E+01  0.000000000000E+00 -3.288194422599E+00  6.135131030144E+00  3.044189774767E+01  8.894513182728E+00  1.945769391987E+01 -3.539640808201E-01      180
 O   1.212751784613E+01  1.094848297422E+00  2.154711481903E+01  0.000000000000E+00 -1.602272441852E+01 -4.129235881482E+00 -2.776935153116E+01 -5.463136923237E+00 -1.562962415609E+01 -2.431641155502E+00      182
 O   1.177196145077E+01  3.921862435774E+00  1.743644977790E+01  0.000000000000E+00  2.969642403870E+00  2.951316078013E-01 -3.006650416220E+01  1.273480221256E+00 -2.029895606417E+01  9.857133346794E-01      184
 O   1.207740400130E+01  4.088706022205E+00  2.002381079831E+01  0.000000000000E+00 -1.210040447807E+01 -3.976132659561E+00 -2.207443275069E+01 -1.982022911253E+01 -1.331424098614E+01 -4.094877942072E+00      185
 O   9.555545406165E+00  3.347402896552E+00  1.879232019047E+01  0.000000000000E+00  2.198677379155E+01 -3.999939071593E+00  3.245691070423E+00 -2.133171333217E+01  1.650373561299E+00  7.725151230219E+00      187
 O   6.869620354884E+00  3.858486156546E+00  1.901100346048E+01  0.000000000000E+00 -7.710465216345E+00  7.263305449549E-01 -1.947448397575E+01  4.681197878432E+00 -7.037098899003E+00 -4.411029497938E+00      188
 Ca  1.135597193902E+01  4.042935389350E+00  2.256236145186E+01  0.000000000000E+00 -3.845085842972E+00  2.860629737466E+00 -1.814165736267E+01  1.596428235946E+01 -9.130965851134E+00 -1.368921454994E+00      190
 O   1.541979461429E+01  1.910822286568E+01  7.552607831678E+00  0.000000000000E+00  1.317965826714E+01 -1.191336856296E+01  5.696769112746E+00 -4.708810512770E+00  1.163081834001E+01  1.633224396054E+01      193
 O   4.097384886999E+00  1.226917153573E+01  1.255008784255E+01  0.000000000000E+00  1.165571728817E+01 -1.804804235968E+00 -3.850031410458E+00 -1.846127233126E+00 -1.291849338701E+00  3.540045282563E+01      194
 Si  1.820014936388E+01  1.995107530525E+00  1.995971561290E+01  0.000000000000E+00 -1.146468199217E+01 -3.133214867534E+00  4.543342663569E+01 -4.263456973774E+01  4.142820303251E+01 -5.088229984432E+00      196
 Si  1.689301049100E+01  4.312549475142E+00  1.923916647146E+01  0.000000000000E+00  4.363651455193E+01 -7.571428445601E+00 -1.400630989589E+01 -2.988475511324E+01 -1.229828435460E+01  1.103283372546E+01      197
 O   1.972240655913E+01  1.718537498770E+00  2.065224415996E+01  0.000000000000E+00  1.148578900661E+01  6.319266692316E+00 -6.738019807695E+00 -9.911570883805E-01 -6.434650153346E+00 -9.612916336946E-01      202
 O   1.806867319397E+01  3.571399547524E+00  2.019536135242E+01  0.000000000000E+00  5.281219636490E+00 -2.297928537208E-01  2.813870247846E+00 -6.492234183335E+00  2.517553463456E+00  7.448173470693E-01      205
 O   1.595863179804E+01  5.072029555226E+00  2.014847496396E+01  0.000000000000E+00 -5.435463029626E+01  1.470477710772E+01  3.551804347346E+01  5.841425610389E+01  2.813212310082E+01 -1.727518341264E+01      206
 Ca  1.400150779307E+01  5.700843679339E+00  1.826606872688E+01  0.000000000000E+00  4.518831443048E+00 -3.228071281837E+00 -1.912908118566E+00 -1.034306064259E+01 -1.466303358978E+00  1.839884107542E+00      209
 O   2.260251783577E+01  1.873936100691E+01  1.456263569050E+01  0.000000000000E+00 -9.928514019818E+00  1.850205167222E+01  2.693516330234E+00  1.437821908282E+01  4.180579133402E+00 -8.231561184087E+00      210
 O   1.404871660397E+01  1.775312622432E+01  4.795118473600E+00  0.000000000000E+00  2.182329481821E+01 -3.210084157728E+01 -1.348644726379E+01 -8.669643453588E+00 -3.950529777588E+01  2.757772958625E+01      212
 Si  1.403673261144E+01  3.909132796583E+00  1.460640665208E+01  0.000000000000E+00 -1.060709187151E+01 -1.008968832471E+01  1.948415757614E+00 -3.769994480421E+01  1.872424317424E+00 -2.954001608428E+00      213
 Si  1.158943012107E+01  4.828189661820E+00  1.602332707876E+01  0.000000000000E+00 -2.052885307217E+01 -5.627962636721E+00 -6.569195867540E+00 -1.867753597759E+01 -4.751400011012E+00 -8.552378774160E+00      214
 Si  9.412752575701E+00  6.172431295450E+00  1.450321811440E+01  0.000000000000E+00  8.537771709137E+00 -7.409609446049E+00 -2.030947911241E+01 -1.741018681209E+01 -1.318108162744E+01  5.598660845173E+00      215
 O   1.253214403731E+01  4.667992179552E+00  1.463058823563E+01  0.000000000000E+00 -1.147462307558E+01 -2.370194613450E+00  2.339133830405E+00 -7.428748826873E+00  2.003635234145E+00 -4.274085154198E+00      216
 O   1.443953871356E+01  4.162051825852E+00  1.609588200781E+01  0.000000000000E+00  2.724550436758E+01  4.254336762887E+00  4.697064122969E+01  1.549964591406E+01  4.213713744344E+01  7.756510878349E+00      217
 O   1.493140125081E+01  4.509582843987E+00  1.345179612630E+01  0.000000000000E+00  2.054321477032E+00  3.502513253130E+00 -8.336334026605E-01  1.044777218664E+01 -9.253273476889E-01  6.204463153354E-01      218
 O   1.377584723044E+01  2.215524946764E+00  1.470936257063E+01  0.000000000000E+00  2.451034591663E+01  9.090738390937E-01 -3.999580005554E+01 -1.448057112226E+01 -3.745750563825E+01  3.532940153011E+00      219
 O   1.191505866344E+01  6.281822172668E+00  1.663000073009E+01  0.000000000000E+00  2.308218768107E+01  1.019172592880E+01  8.471229364842E-01  2.698077165799E+01  6.069464245478E-01  1.216932307799E+01      220
 O   9.998387231674E+00  4.874262929765E+00  1.547125124427E+01  0.000000000000E+00  1.371999208826E+00  2.711400445543E+00  1.068209887525E+01  8.606174537828E+00  6.903369308368E+00  6.688563593601E-01      222
 O   1.086009032927E+01  6.762440045464E+00  1.399532227189E+01  0.000000000000E+00 -6.256864328115E+00  2.231507961589E-01 -3.268334907214E+00  4.618255077273E-01 -2.536162556967E+00 -3.896069793955E+00      223
 O   2.123655462683E+01  2.112547050038E+01  1.309510374920E+01  0.000000000000E+00  5.427574974781E+01 -3.879341140118E+01 -1.390512141371E+01 -2.404697907555E+01 -2.255017418347E+01  5.399184426718E+01      224
 Ca  1.540852905303E+01  7.675141761696E+00  6.110781798275E+00  0.000000000000E+00  6.878388288672E+00  7.171639364462E+00 -4.123337253162E+00  5.709904084229E+00 -1.039712494377E+01  3.426193702583E+00      225
 Ca  1.693286438301E+01  4.872050049106E+00  1.557308997440E+01  0.000000000000E+00 -3.716461037677E+00 -2.888185058289E+00 -3.508473050020E+00 -9.231835741035E+00 -3.814817640244E+00 -1.069327892290E+00      226
 Si  2.129516769867E+01  2.293592570220E+00  2.037246070618E+01  0.000000000000E+00  1.161612198705E+00  4.882477590821E+00 -1.883710008193E+01  1.499808332996E+01 -1.969026770927E+01  3.482185408593E+00      228
 Si  2.299600275414E+01  4.605586514368E+00  2.204542874963E+01  0.000000000000E+00  8.557931674827E+00 -1.595748488216E+01 -2.325694961877E+01 -7.638323477271E+01 -2.425976303568E+01  1.713962862757E+00      229
 O   2.206610320400E+01  7.391556359633E-01  2.051631979150E+01  0.000000000000E+00  2.025621097144E+01  3.138586748541E+01  8.432482270745E+00  2.386302932851E+01  9.069464014166E+00  3.875777036964E+00      230
 O   2.171621718818E+01  3.499548322255E+00  2.154664309651E+01  0.000000000000E+00 -6.946117035470E+00 -1.244000574776E+00 -1.367573963646E+01 -1.058252495837E+01 -1.378336898347E+01 -8.714239571444E-01      236
 O   2.311626662792E+01  4.799308712402E+00  2.370433789034E+01  0.000000000000E+00  2.993064713582E+01 -4.617091882764E+00 -1.804252611368E+00 -2.280434800473E+01 -1.759491643321E+00  6.214083696078E+00      237
 H   1.373475839875E+01  1.747883127194E+01  3.845977479283E+00  0.000000000000E+00  4.053932836971E+00  8.297566568410E+00  9.008121185967E+00  2.075286915730E+00  3.337802483577E+01  5.159028356234E+00      243
 H   1.913946238073E+01  1.867618153659E+01  7.371975025076E+00  0.000000000000E+00  1.211287176669E+01  1.236596876599E+01 -4.596776995154E+00  4.881169779012E+00 -1.193436495269E+01  1.181967327734E+01      247
 H   1.317576033889E+01  8.524583611507E+00  6.268674909416E+00  0.000000000000E+00 -1.631682053497E+01 -1.160008898998E+01  6.428329207208E+00 -8.530291931245E+00  1.351132834890E+01 -1.055681777346E+01      248
 H   5.825472046978E+00  9.579961327147E+00  1.100409854083E+01  0.000000000000E+00  5.257717191020E+01  4.427174948714E+01  2.370936145772E+01  5.085309609247E+01  1.255152540766E+01  8.646291142222E+01      249