     8448
Lattice="     49.70      0.00      0.00      0.00     49.70      0.00      0.00      0.00     49.70" pbc="T T T" config_type=md Properties=species:S:1:pos:R:3:charge:R:1:forces:R:3:id:I:1
 Si  1.084262280137E+01  1.755937835610E+01  1.660859214481E+01  0.000000000000E+00  3.772538531592E+00 -2.571375573785E+01  2.329966100415E+01 -2.432143512716E+01  1.521076762347E+01  6.109539421663E+00        1
 Si  1.291439471839E+01  1.962825902507E+01  1.715177304465E+01  0.000000000000E+00  3.114779811847E+01 -7.627637230863E+01 -4.505036500606E+01 -6.665262695156E+01 -3.392058619137E+01  4.734074363233E+01        2
 Si  1.161094328191E+01  2.225610683678E+01  1.811749743663E+01  0.000000000000E+00 -3.493975266010E+01  4.399866013516E+01 -1.595795377529E+01  3.581693860745E+01 -1.022695859780E+01 -6.697327247011E+01        3
 O   1.198816028433E+01  1.836244944192E+01  1.756723966722E+01  0.000000000000E+00 -5.592733822013E+00 -6.894757619961E+00 -2.052265697237E+01 -6.596171166618E+00 -1.400498347525E+01 -8.566476391128E+00        4
 O   9.884301479912E+00  1.839381871545E+01  1.560245953166E+01  0.000000000000E+00  4.631870032549E+00  1.746330103473E+00  2.687736195463E+00  1.481315282589E+00  1.702705576676E+00  8.619504156705E+00        5
 O   1.162594777858E+01  1.626539770212E+01  1.588723332819E+01  0.000000000000E+00 -6.660885885501E+01  1.588517020457E+01 -1.123822867558E+00  1.551584597682E+01 -8.223902614572E-01 -9.318978550358E+01        6
 O   9.868098746986E+00  1.680683062047E+01  1.773424984671E+01  0.000000000000E+00 -2.753789344202E+00 -1.070963099743E+01  1.527710534338E+01 -1.130060010500E+01  8.500837949145E+00 -4.690110249111E+00        7
 O   1.303429871574E+01  1.989655205057E+01  1.550561788126E+01  0.000000000000E+00 -9.297982002058E+00  1.152962892638E+00  9.831974900740E+00  8.985175923484E-01  8.264933316642E+00 -1.419315199872E+01        8
 O   1.455912288546E+01  1.948555473642E+01  1.738687259161E+01  0.000000000000E+00 -3.928880202147E+00  2.694861543075E+00  1.762819848854E+00  2.404612798315E+00  1.476120024988E+00 -5.258311976213E+00        9
 O   1.225437325068E+01  2.078825125412E+01  1.785828364897E+01  0.000000000000E+00 -1.769403535253E+01  8.818525085269E+01  4.166432424274E+01  7.575611840225E+01  2.859010364848E+01 -3.001606406816E+01       11
 O   1.864296118084E+01  1.691916900683E+01  2.067276008897E+01  0.000000000000E+00 -1.962133456540E+01  9.819732237676E+00  2.472231645237E+00  1.199828245734E+01  2.229490324169E+00 -1.780707863044E+01       13
 Ca  3.858709434212E+00  1.610578967173E+01  1.750686329551E+01  0.000000000000E+00 -2.045762411315E+00 -3.739277838985E+00 -5.968268202745E+00 -4.064564810873E+00 -1.315473390699E+00 -8.538766568649E+00       14
 Ca  2.233485096739E+01  1.350899376077E+01  1.787684478258E+01  0.000000000000E+00  1.082931850728E+01 -5.363215155246E+00 -1.730347337299E+00 -7.097298774713E+00 -2.161849608833E+00  6.549996521662E+00       15
 O   6.831502437984E+00  4.342802693914E+00  1.649106857123E+01  0.000000000000E+00 -1.742825559375E+01  2.815563166760E+00 -1.007012872346E+00  1.069320792176E+01 -4.171598015494E-01 -1.107933241718E+01       16
 O   1.043068427460E+01  1.615984925858E+01  2.097919006062E+01  0.000000000000E+00 -2.550036886594E+01  1.982705237032E+01  4.519294768975E+00  2.574006065051E+01  2.246956948424E+00 -3.950671941198E+01       18
 Si  2.037769777578E+01  1.954692531464E+01  1.786394872794E+01  0.000000000000E+00 -4.532934546262E+01 -1.218359624758E+00 -1.880232602643E+01 -1.113459713921E+00 -2.144812007040E+01 -4.348132650061E+01       19
 Si  1.827281392609E+01  2.137252990085E+01  1.824408491249E+01  0.000000000000E+00 -5.692423084406E+01  6.949840483743E+00 -3.339296960172E+01  5.932544275381E+00 -3.344555360811E+01 -6.658059512446E+01       20
 O   1.861451635567E+01  1.993540736785E+01  1.755994552207E+01  0.000000000000E+00  3.218216948400E+01  1.842866668489E-01  1.200802346537E+01  1.623274493767E-01  1.272917099398E+01  3.446582475668E+01       22
 O   2.127634247080E+01  2.081597304845E+01  1.767644761723E+01  0.000000000000E+00  1.445253811004E+01  7.520143395066E+00  1.059013701726E+01  6.385933556291E+00  1.274687012182E+01  1.413981957628E+01       23
 O   2.085748474902E+01  1.861773383973E+01  1.661368656604E+01  0.000000000000E+00 -1.808250709064E+00 -1.447654809035E+01  7.350501608862E+00 -1.291826570310E+01  9.228112893253E+00 -1.614074315381E+00       24
 O   2.005665204308E+01  1.899675187151E+01  1.944528750190E+01  0.000000000000E+00  1.161607473631E+01 -2.243712400452E+01 -1.081621470707E+01 -2.296689086296E+01 -1.115627911296E+01  1.100221956350E+01       25
 O   1.875182945210E+01  2.176446568866E+01  1.975481150762E+01  0.000000000000E+00 -4.242405542878E+00 -1.687555535300E-02  8.946483911466E+00 -1.531732595019E-02  8.492257212325E+00 -4.923983023163E+00       26
 O   2.123002231734E+01  1.712833799021E+01  2.086378336561E+01  0.000000000000E+00  1.782083945526E+01  8.974963338200E+00  3.122497604268E+00  1.093227439285E+01  3.177309343316E+00  1.437781632522E+01       27
 O   1.872999705015E+01  2.252864734543E+01  1.711865090965E+01  0.000000000000E+00 -5.435530762283E+01 -1.289557178454E+02  5.948739190655E+01 -9.798848030021E+01  6.508682727463E+01 -6.537916442314E+01       29
 Ca  4.487925835742E+00  9.694424181541E+00  1.335468345546E+01  0.000000000000E+00  1.607810362895E+00  5.727986310763E-01  3.633873865339E+00  7.890664013145E-01  1.221186294567E+00  3.473051077904E+00       32
 Si  1.252484380983E+01  1.824429981536E+01  1.175653250659E+01  0.000000000000E+00  4.700914628446E+01  3.702409235173E+01  7.141418877546E+00  2.385813375494E+01  7.608123906574E+00  6.847582068886E+01       37
 Si  1.218826042729E+01  2.052781832938E+01  1.421581251207E+01  0.000000000000E+00  2.088974541846E+01 -2.398668847380E+01 -1.023061489340E+01 -1.661113035285E+01 -8.771457737378E+00  3.518310930877E+01       38
 O   1.206700812968E+01  1.916562463140E+01  1.317424199500E+01  0.000000000000E+00  3.134163078098E-01  2.933932278540E+01  2.047971546933E+01  2.016753149339E+01  1.875849048134E+01  4.977886187102E-01       40
 O   1.377086094436E+01  1.727929227995E+01  1.197147836258E+01  0.000000000000E+00 -4.054778088021E+00 -2.739858789990E+00  3.957153085991E+00 -1.898235164350E+00  4.551936129548E+00 -5.087822467772E+00       41
 O   1.303330742708E+01  1.923796414228E+01  1.053073816077E+01  0.000000000000E+00  3.013747876734E+00  3.545197070319E+01 -8.055335391603E+00  1.940618134005E+01 -9.969639448267E+00  4.448477403827E+00       42
 O   1.106196255966E+01  1.797786714904E+01  1.147346309535E+01  0.000000000000E+00 -5.222891292092E+01 -3.091622700192E+01 -1.870572765944E+01 -1.973071591937E+01 -1.803483894099E+01 -8.488226684612E+01       43
 O   1.340064419140E+01  2.153364479989E+01  1.362896984887E+01  0.000000000000E+00  1.506743772818E+01 -3.861132403608E+01 -2.542184535923E+01 -2.443769162178E+01 -2.499595406884E+01  2.421203394768E+01       44
 O   1.085612399999E+01  2.136223424526E+01  1.443515999721E+01  0.000000000000E+00 -6.568546921919E+00  6.801382130487E+00  2.544494506231E+00  4.595916238374E+00  1.913615635870E+00 -1.292531643864E+01       46
 O   8.393043383043E+00  2.177436451229E+01  1.532376323540E+01  0.000000000000E+00  6.157019457738E-01  6.415484933641E+00 -1.009738528037E+00  4.514913494164E+00 -5.530481736868E-01  1.597336983304E+00       47
 O   1.731372723842E+01  1.553605874216E+01  9.694453465369E+00  0.000000000000E+00 -3.892358948539E+00  1.748666326633E+01 -7.495123075765E+00  1.091162476362E+01 -1.338585171570E+01 -3.492715140843E+00       48
 Ca  7.235982397385E+00  2.175027735314E+01  1.340995268248E+01  0.000000000000E+00 -1.285670393522E+00 -1.418848778293E+01  1.746672281824E+00 -8.747794187441E+00  9.425007070899E-01 -3.864532292663E+00       49
 Si  2.084400253673E+01  2.109695801818E+01  2.275697403829E+01  0.000000000000E+00  3.099758133503E+01  3.923889253655E+01  4.155694680613E+01  4.232640828959E+01  3.806363285330E+01  3.137375707654E+01       51
 Si  1.963655040240E+01  2.298190167772E+01  2.038201237011E+01  0.000000000000E+00  3.786358775619E+01  2.544816171672E+01  2.839185848235E+00  2.256927012309E+01  2.735344037588E+00  4.431416074344E+01       52
 O   2.072876085553E+01  2.229477471756E+01  2.169539458417E+01  0.000000000000E+00 -4.716572198450E+01  4.120055249431E+01 -7.107348147634E+01  4.009290314766E+01 -6.790681750347E+01 -5.072899211700E+01       54
 O   1.956079224885E+01  2.025041586767E+01  2.314110454561E+01  0.000000000000E+00 -2.870158656716E+01 -1.075332967726E+01  1.545923399588E+01 -1.228833659027E+01  1.306743435361E+01 -2.971347257580E+01       55
 O   2.202671653912E+01  2.015751052462E+01  2.226859606802E+01  0.000000000000E+00 -5.442602984878E+00 -4.221841773360E+00  2.342234625947E+01 -4.663993056048E+00  2.316793479763E+01 -4.980739038164E+00       56
 O   2.123142964217E+01  2.210656423210E+01  2.409152524341E+01  0.000000000000E+00  1.439718250288E+00 -2.625089840755E+01  1.093678102445E+01 -2.860798154827E+01  9.638389204768E+00  1.499061745371E+00       57
 O   1.652959659816E+01  2.131711226278E+01  1.824992576417E+01  0.000000000000E+00  5.393214362514E+01  6.787822381322E+00 -3.016250693995E+01  5.811164900407E+00 -2.731923836564E+01  6.955266895970E+01       58
 O   1.705366506300E+01  1.811254386176E+01  1.504436831091E+01  0.000000000000E+00 -1.083322641413E+01  1.919065872311E+01  3.969060911211E+01  1.593985583488E+01  4.499161014649E+01 -1.150587207297E+01       59
 H   1.920216784180E+00  8.121783742447E+00  1.489504586234E+01  0.000000000000E+00  4.336044459262E+00 -7.864807264126E+00 -8.618386442764E+00 -1.442376066792E+01 -1.409847408949E+00  1.365674744998E+01       70
 H   1.513545107282E+01  1.985967961028E+01  1.809979821700E+01  0.000000000000E+00 -3.602928931079E+00 -3.457376910550E+00 -9.891250011717E-01 -3.150998690265E+00 -8.271281746157E-01 -4.727511184541E+00       73
 H   1.611978731691E+01  1.149190949784E+01  1.735425023528E+01  0.000000000000E+00 -6.362304075870E+00  1.902711172350E+01 -8.267645802651E+00  2.873336743267E+01 -7.679541907224E+00 -4.535731222762E+00       83
 Si  2.083034796151E+00  2.158469237047E+01  2.129427244921E+01  0.000000000000E+00  2.378740168306E+00 -7.193788522205E+01  2.342962456638E+01 -7.096996802389E+01  3.813027317618E+00 -1.146308167210E+01       89
 Si  2.645131597172E+00  2.072307949310E+01  1.855381197262E+01  0.000000000000E+00  7.466469969485E+00  1.615493815335E+01 -4.400988456073E+01  1.446385828064E+01 -7.078022189042E+00  4.330157246010E+01       90
 O   1.815306995423E+00  2.064528189826E+01  1.987812898750E+01  0.000000000000E+00  3.697096495407E+00  2.314435447506E+01  2.975864596131E+01  2.228433914610E+01  3.909399501694E+00 -2.371185183952E+01       92
 O   8.633778003863E-01  2.079997596609E+01  2.214778851387E+01  0.000000000000E+00  7.069723522360E+01  2.102349563117E+01  1.137011800017E+01  2.238579197498E+01 -6.626153714328E-01  1.014445170088E+01       95
 O   1.747053574586E+00  1.943997767097E+01  1.781356333862E+01  0.000000000000E+00  1.330454005784E+01  1.333694509863E+01 -2.359922481830E+01  1.222113112881E+01 -1.913222233754E+00  6.156269784292E+00       96
 O   4.251046415192E+00  2.036921641455E+01  1.892011544238E+01  0.000000000000E+00 -6.295265383143E+00  7.643747239687E+00 -5.557103212682E+00  7.099957958320E+00 -1.264489047782E+00 -2.975025927532E+01       97
 O   1.065787612327E+01  1.376306244201E+01  2.137670888758E+01  0.000000000000E+00  1.534842724959E+00 -9.211172518183E+00 -5.819532432494E+00 -1.430673981639E+01 -2.901468887800E+00  1.982021184892E+00       98
 O   3.585597148084E+00  1.264078712445E+01  2.024732341647E+01  0.000000000000E+00  6.262593140750E+00  5.968320093377E+00  1.549121619877E+01  9.559729627110E+00  2.667182102241E+00  1.862678952389E+01      101
 Ca  2.193085521620E+01  2.460505796844E+01  1.784962231737E+01  0.000000000000E+00  1.155508307557E+01 -2.486622980929E+00  1.851961267265E+01 -1.803908818756E+00  2.275403574162E+01  1.296408580978E+01      102
 O   1.621604558723E+01  3.735935729530E+00  1.196159051972E+01  0.000000000000E+00 -1.433599699211E+00 -1.108689817373E+00  2.020520619185E+01 -3.517318972328E+00  2.739172053801E+01 -3.332264870787E-01      105
 Si  5.917872925628E+00  1.617707300864E+01  2.011434196423E+01  0.000000000000E+00  2.274310660782E+00 -5.336091711380E+00  2.968395054771E+01 -6.634820364464E+00  8.733362870355E+00  6.217046237081E+00      107
 Si  8.785924535283E+00  1.656155408472E+01  2.135389737302E+01  0.000000000000E+00  1.317258481481E+01 -6.437566041965E+00  9.587015350781E-01 -8.300375912126E+00  3.944516165793E-01  2.483045181755E+01      108
 Si  7.775212238823E+00  1.936319631598E+01  2.043846950640E+01  0.000000000000E+00  4.469334846723E+00  3.197910557837E+01 -2.472773721284E+01  3.375496294823E+01 -9.406937488910E+00  1.113032099714E+01      109
 O   7.616539002773E+00  1.606068323549E+01  2.034330969189E+01  0.000000000000E+00 -5.671190031745E+00 -4.862274067980E-02 -1.639878581581E+01 -6.158813153925E-02 -6.139708516261E+00 -1.195860569150E+01      110
 O   5.328636163450E+00  1.705896402531E+01  1.887583544360E+01  0.000000000000E+00  2.867312144938E+00 -6.217940294863E+00  1.155830256458E+01 -6.880184378710E+00  3.262901354366E+00  9.179342186157E+00      111
 O   5.305367435731E+00  1.656751529164E+01  2.159702828535E+01  0.000000000000E+00 -2.966420204583E-01  2.774913964723E+00 -2.606232020263E+01  3.617313419096E+00 -6.402278270686E+00 -9.263488852793E-01      112
 O   5.434834231134E+00  1.448568087511E+01  1.993310782349E+01  0.000000000000E+00  9.862213412505E+00  3.160799283892E+01 -3.510943918293E+01  4.349436762926E+01 -9.572716086071E+00  2.628615154394E+01      113
 O   8.592717907233E+00  1.563568142884E+01  2.276610925958E+01  0.000000000000E+00  9.692591101301E-01  1.655345251880E+01 -2.029476504880E+01  2.410241666673E+01 -7.659947032211E+00  1.763705829938E+00      114
 O   1.281061627651E+01  1.259496795128E+01  3.602343660487E+01  0.000000000000E+00 -1.076481689969E+01  2.938997519616E+01  1.084200656761E+01  8.405959526005E+01  3.855622863764E+00 -1.058360666860E+01      115
 O   8.619699371298E+00  1.827655315322E+01  2.143489145028E+01  0.000000000000E+00 -6.438965599375E+00 -1.913315982427E+01 -2.682262904240E+01 -2.243952678034E+01 -1.078629202437E+01 -1.365269158001E+01      117
 O   6.286132174685E+00  1.962728082923E+01  2.094239159096E+01  0.000000000000E+00 -5.390598616298E+00  5.308813377005E+00  2.154453408142E+00  5.664526308657E+00  6.466873102319E-01 -1.683114352985E+01      118
 O   6.668721111952E+00  9.845638327679E+00  2.238940216920E+01  0.000000000000E+00 -9.488961171989E+00  2.736122182995E+01  7.909831465108E+01  6.222058733047E+01  2.355956612182E+01 -1.400941473431E+01      119
 Ca  2.279326948524E+01  1.900984948411E+01  2.084417852297E+01  0.000000000000E+00  1.658264000128E+01 -1.316326974973E+01 -2.444291930751E+01 -1.443344119262E+01 -2.672852020377E+01  1.383011290581E+01      120
 Ca  3.254924007732E+00  1.280790118896E+01  1.766443947153E+01  0.000000000000E+00 -6.901083608608E+00 -1.776874818886E+01 -2.040138973162E+00 -2.450635527525E+01  3.228440726999E+00  6.956710873076E-02      121
 Si  1.485596160385E+00  1.703152274864E+01  1.459308574935E+01  0.000000000000E+00  3.368580788028E+00 -4.253442023607E+01  2.072697126719E+01 -3.644468266078E+01  1.657183149517E+00  4.105158141322E+01      125
 Si  2.371338411621E+00  1.898352258644E+01  1.632454557342E+01  0.000000000000E+00  2.102181604193E+00  3.299816583265E+01 -1.046088227310E+01  2.837619095831E+01 -1.643819843720E+00  2.729106845611E+01      126
 Si  3.153307825095E+00  2.095332902516E+01  1.394789897728E+01  0.000000000000E+00  1.420796694430E+00 -2.839037321502E+01  6.337341501268E+00 -1.889847942801E+01  9.260263753190E-01  5.382989601781E+00      127
 O   1.039269166340E+00  1.840963462568E+01  1.538916403988E+01  0.000000000000E+00  1.705017046789E+01  3.266334033436E+00  2.645143271110E+01  2.730426283392E+00  2.444815225211E+00  1.784406823820E+01      128
 O   3.147592075885E+00  1.688545543776E+01  1.467989908280E+01  0.000000000000E+00 -5.083265522423E+00  1.263384687778E+01 -8.278389236249E+00  1.098363013523E+01 -1.760288078784E+00 -2.731752117694E+01      129
 O   1.051308969326E+00  1.550035709158E+01  1.523998975970E+01  0.000000000000E+00  2.436701879233E-01  3.608790836070E+00  1.922710540286E+01  3.548172152530E+00  7.124572602101E+00 -8.290219805015E+00      131
 O   3.873619321177E+00  1.822571626160E+01  1.669356082017E+01  0.000000000000E+00 -6.903695415270E+00  2.239715389047E+01 -9.878134451302E+00  2.051432411779E+01 -2.292149223280E+00 -3.248248817517E+01      132
 O   2.042692946080E+00  4.424891770405E+00  9.337735651437E+00  0.000000000000E+00  1.470443433330E+01  1.672341115886E+00 -1.914630973373E+01  4.073918880142E+00 -2.384071926397E+00  2.790256629863E+00      133
 O   2.760344687840E+00  2.059420787686E+01  1.558552376466E+01  0.000000000000E+00  5.065547093140E+00 -5.983140337943E+01 -4.629329466594E+00 -4.527990417591E+01 -9.565041242037E-01  9.211111961966E+00      134
 O   1.561798710137E+00  2.083835895143E+01  1.337302128224E+01  0.000000000000E+00  7.757897724629E+00  1.909307346539E+01 -2.133731591309E+01  1.225298395095E+01 -4.417259049194E+00 -1.510780570817E+01      135
 O   8.047826804488E+00  1.606832093616E+01  1.290848243634E+01  0.000000000000E+00 -8.210982076218E+00  4.705611899100E+00 -1.343802885636E+01  3.780252385618E+00 -8.377973891436E+00 -1.639407735864E+01      136
 Si  9.081109808104E+00  1.394420611528E+01  2.604117777382E+01  0.000000000000E+00 -2.689436154146E+00 -2.470476746685E+01  9.246214242458E+00 -4.613681382409E+01  3.224350587147E+00 -4.129677193620E+00      139
 Si  8.575629662213E+00  1.600391879382E+01  2.439181591647E+01  0.000000000000E+00 -2.826048288172E+01  8.662016346222E+01 -1.107282591893E+02  1.320191078851E+02 -3.892963718654E+01 -5.273997256505E+01      140
 O   8.052713917768E+00  1.480003449389E+01  2.509504024903E+01  0.000000000000E+00 -1.266503518583E+01 -8.271328176604E+01  9.933353314302E+01 -1.402492092775E+02  3.187500465845E+01 -2.327699202167E+01      142
 O   7.986910424438E+00  1.253317090560E+01  2.634171976468E+01  0.000000000000E+00 -4.494710817859E-01  8.655775839657E+00 -1.325702792848E+01  1.819236514298E+01 -4.019581694170E+00 -7.053162719730E-01      143
 O   7.155830824048E+00  1.693349840877E+01  2.467842411910E+01  0.000000000000E+00  4.718599531786E+00  5.080746151951E+00  7.351053641355E+00  7.404542484526E+00  2.131533844389E+00  1.116605459629E+01      148
 O   1.262854189949E+01  1.531391886273E+01  5.929124362584E-01  0.000000000000E+00  1.175112207478E+00 -1.169116348541E+01  7.486346653856E+01 -4.717197738098E+01  4.343820748566E+00  1.424992144236E+00      150
 Ca  5.875122881478E+00  1.081438317122E+01  7.917642886456E+00  0.000000000000E+00  1.509037243037E+00  7.603518957553E+00 -4.798722606399E-01  5.566840644832E+00 -3.560792699421E-01  2.777696278880E+00      151
 Ca  1.299939250179E+01  2.235260043111E+01  1.618600978271E+00  0.000000000000E+00 -3.365720998086E+00 -8.757486077269E+00 -3.635338902398E+01 -1.525761557584E+01 -5.963163320495E+00 -5.787394804982E+00      152
 H   7.590409624031E+00  1.911323643084E+01  1.497601375873E+01  0.000000000000E+00 -1.777308019475E+01  2.127902749057E+01  1.735075210072E+01  1.667300091348E+01  8.794016742454E+00 -4.475398571260E+01      155
 H   1.289985218725E+01  1.168202909945E+01  3.589480488870E+01  0.000000000000E+00 -3.957527509279E+00 -3.352585131851E+01 -1.867641682389E+01 -1.030132592173E+02 -6.711918818408E+00 -3.583913277004E+00      156
 H   1.718519726568E+01  1.800364287077E+01  1.610869402508E+01  0.000000000000E+00 -1.010650006535E+01  1.430792578011E+01 -5.747698524664E+01  1.280196459016E+01 -6.131802666075E+01 -1.058782247518E+01      159
 H   1.659644520086E+01  3.513190333921E+00  1.106954766281E+01  0.000000000000E+00  2.002386768180E+01 -1.684626005501E+00  8.351768079758E+00 -3.592349126078E+00  1.252170960261E+01  4.470259637303E+00      160
 H   1.609839348496E+01  1.869285686430E+01  2.191620056441E+01  0.000000000000E+00  5.165175543315E+00  1.048238062394E+01  1.473543690223E+01  1.228993287728E+01  1.082381322108E+01  5.997610084530E+00      164
 H   1.725751528609E+01  9.425253662847E+00  3.298030790816E+00  0.000000000000E+00  8.009043690916E+00 -3.299280570590E+01 -5.384417374935E-01 -1.135938371805E+01 -5.428672369389E+00  4.374167841215E+00      168
 H   6.506747266284E+00  2.198468373840E+01  3.131324176524E+01  0.000000000000E+00 -4.850157683997E+00 -3.576447692925E+01 -1.234456846244E+01 -5.094008747267E+01 -2.565144410746E+00 -1.638747878169E+01      169
 Si  1.200351088582E+01  8.565684944763E-01  1.961549269532E+01  0.000000000000E+00 -3.219101272561E+01 -1.882184081491E+02  5.619948636777E+01  2.104824586299E+01  3.439073169719E+01 -1.436401106474E+02      177
 Si  1.057568141587E+01  3.430259497581E+00  1.898892941814E+01  0.000000000000E+00  1.357532390646E+01  1.066855612775E+00 -1.478542733058E+01  7.917583424676E+00 -8.234585826433E+00  4.457697561222E+00      178
 Si  8.020576560373E+00  4.073725059989E+00  2.012813771875E+01  0.000000000000E+00 -1.791954538574E+01 -2.309343563584E+00 -1.111230338937E+01 -1.141038842908E+01 -4.427984413753E+00 -9.101502934611E+00      179
 O   1.097313538799E+01  1.855050064584E+00  1.875250817916E+01  0.000000000000E+00  1.762473372787E+01  2.416413060849E+01  1.547974750413E+01 -2.187475779837E+01  9.058061114377E+00  5.482603856627E+00      180
 O   1.297861923277E+01  1.407590668306E+00  2.113035643571E+01  0.000000000000E+00 -1.225176828087E+01 -2.863651949512E+00  5.179232255807E+00  1.059787525075E+01  3.181171295937E+00 -4.737144065815E+00      182
 O   1.094883571969E+01  3.969416385328E+00  1.750350567237E+01  0.000000000000E+00  2.233335675473E+01  9.782023624335E+00 -3.101981763596E+01  4.415589773678E+01 -1.940359226934E+01  8.046124519410E+00      184
 O   1.150129310322E+01  4.029467005312E+00  2.021195574334E+01  0.000000000000E+00 -1.071650547113E+01  2.584096684403E-01 -1.173124412858E+01  1.079196370581E+00 -6.675478558409E+00 -3.796590557080E+00      185
 O   8.964394266608E+00  3.318030667155E+00  1.898114289756E+01  0.000000000000E+00 -4.877847219448E+00  4.696143910713E+00  1.392811177741E+01  2.844413575988E+01  6.577954027105E+00 -1.714496838198E+00      187
 O   6.581082329583E+00  4.655609827052E+00  1.940302616187E+01  0.000000000000E+00  9.969476656411E+00 -8.244325903493E+00  2.272215573255E+01 -3.435959565661E+01  7.706858524749E+00  7.052638330250E+00      188
 Ca  1.177212466678E+01  2.914263847943E+00  2.233000944563E+01  0.000000000000E+00 -8.319159790329E-01 -4.484724398093E+00  1.128627748917E+01 -2.899301340549E+00  5.949995943796E+00 -1.098661956619E+00      190
 O   1.523217816540E+01  2.035139054310E+01  8.774434255423E+00  0.000000000000E+00  1.104086225879E+01 -1.211690332914E+01 -5.181302342413E+00 -5.224162516843E+00 -8.994599322417E+00  1.475146215606E+01      193
 O   4.633151418032E+00  1.197464874133E+01  1.292070395904E+01  0.000000000000E+00  4.494213325713E+00  7.827741504757E+00  2.764035948160E+01  8.446170976338E+00  9.874996018905E+00  1.126988175491E+01      194
 Si  1.755746510165E+01  1.712291507445E+00  1.996329567661E+01  0.000000000000E+00  4.069708780973E+00 -1.491427529116E+00 -3.459522491023E+01  1.872721142602E+01 -3.042606110157E+01 -5.707864178103E+00      196
 Si  1.542270165554E+01  3.776457487287E+00  1.977098493056E+01  0.000000000000E+00  5.664159557846E+00  3.214161366360E+00  9.331420424381E+00  1.837301050304E+01  7.279137267723E+00  1.461775420020E+00      197
 O   1.877328070131E+01  2.600289066405E+00  2.052423784337E+01  0.000000000000E+00  1.502152432811E+01  4.854541310336E+00  2.791941602799E+01  2.897299207077E+00  2.553756383599E+01  2.835688711358E+00      202
 O   1.605056112093E+01  2.404146581363E+00  2.029161331077E+01  0.000000000000E+00  3.373089719258E+01 -4.116377698986E+00  2.293168514448E+01 -4.927533719097E+01  1.813884427919E+01  4.568866120675E+00      205
 O   1.477847143513E+01  4.706862542895E+00  2.089826270659E+01  0.000000000000E+00 -4.433116148658E+00  2.240037659759E+00  8.919981672875E-01  9.945668703871E+00  6.307878133476E-01 -1.411923312909E+00      206
 Ca  1.329213840503E+01  5.504244986029E+00  1.893015125558E+01  0.000000000000E+00  1.028649002741E+01 -3.860482127242E+00  8.044809019711E+00 -1.327693639612E+01  5.648804042205E+00  4.259612669678E+00      209
 O   2.256520413386E+01  1.872102657195E+01  1.388454658513E+01  0.000000000000E+00  4.271422036660E+01 -4.950763981731E+01  4.449765741102E+01 -3.671759818946E+01  7.231771788886E+01  3.543748373557E+01      210
 O   1.296795255076E+01  1.738722341964E+01  4.378469222095E+00  0.000000000000E+00 -6.302355626382E+00  1.355817341861E+01 -1.882800330740E+00  3.414231036768E+00 -5.577980516193E+00 -8.450097647796E+00      212
 Si  1.302697424304E+01  4.005301526636E+00  1.414379829642E+01  0.000000000000E+00  3.206656886257E+00  8.709913950395E-01 -3.405836040245E+00  3.271100157707E+00 -3.136904065121E+00  9.969672949301E-01      213
 Si  1.153510021807E+01  5.353386964309E+00  1.639386547739E+01  0.000000000000E+00 -1.578082875410E+01 -2.029969522206E+01  2.280573767673E+01 -6.216447174867E+01  1.604664073955E+01 -7.323810052886E+00      214
 Si  9.827961274176E+00  6.797577675853E+00  1.454564550328E+01  0.000000000000E+00  6.425255236398E-01  1.295705428283E+01  3.445912603612E+01  2.772586461710E+01  2.328277257606E+01  4.444072411168E-01      215
 O   1.285421028800E+01  4.780363076315E+00  1.566899938094E+01  0.000000000000E+00 -7.702935555221E+00 -2.869905896000E+00 -1.807289572528E+01 -9.406932693164E+00 -1.482626915210E+01 -2.864651182951E+00      216
 O   1.353741724631E+01  2.519577438493E+00  1.453104568917E+01  0.000000000000E+00  1.074118471103E+01  5.334359089011E+00  1.697913224467E+01  3.734856575620E+00  1.581810439476E+01  1.063316166383E+00      217
 O   1.384638379478E+01  4.991236045150E+00  1.314851922090E+01  0.000000000000E+00 -9.289048477554E+00 -1.393180422347E+00  4.664310721173E+00 -3.670084803785E+00  4.911871466168E+00 -3.348443483401E+00      218
 O   1.156874996649E+01  3.650259343749E+00  1.345951709182E+01  0.000000000000E+00 -1.127652142761E+00  6.210833453668E+00  1.237654609742E+01  2.305914068754E+01  1.063791265861E+01 -3.739047754535E-01      219
 O   1.212494159172E+01  6.462875282702E+00  1.733699846954E+01  0.000000000000E+00  1.198736426625E+01  1.038548228399E+01  2.402597009304E+01  2.785959539477E+01  1.680299416155E+01  6.389543375120E+00      220
 O   1.010220137852E+01  5.779684453096E+00  1.589596957555E+01  0.000000000000E+00  5.631039185499E+00  5.556383154273E+00 -2.823758282348E+01  1.528182001755E+01 -1.794553938781E+01  3.221637385332E+00      222
 O   1.095189677386E+01  7.369438684901E+00  1.355225224275E+01  0.000000000000E+00 -1.277074990687E+01 -7.693263737186E+00  1.054759900539E+01 -1.414776012045E+01  8.523765160944E+00 -8.593329570410E+00      223
 O   2.146487039432E+01  2.033968340468E+01  1.284231970200E+01  0.000000000000E+00  3.377312022469E+01  2.500070869271E+01 -1.753360487957E+01  1.578525522842E+01 -2.930596379925E+01  3.200273564848E+01      224
 Ca  1.589801389799E+01  6.744925524780E+00  6.557837400752E+00  0.000000000000E+00 -3.264365952558E+00 -4.048941498396E+00  2.907933672839E-02 -3.936633531992E+00  7.049636506684E-02 -1.384946910784E+00      225
 Ca  1.687087863374E+01  4.267546711360E+00  1.710758526771E+01  0.000000000000E+00  1.433400173157E+00 -4.468719317404E+00 -3.027046151236E+01 -1.288138259718E+01 -2.985162864137E+01  5.560774060709E-01      226
 Si  2.043247511359E+01  2.368287427421E+00  2.027022933265E+01  0.000000000000E+00 -1.884935408799E+01  6.002755847651E+00  1.525171343423E+01  3.939796739766E+01  1.537379030452E+01  4.137714529890E-02      228
 Si  2.264414608447E+01  4.680485098792E+00  2.065155166025E+01  0.000000000000E+00 -2.005749240551E+01  1.336785777183E+00 -2.949916808445E+01  5.931051182310E+00 -3.234543740171E+01 -4.145676825020E+00      229
 O   2.129782286523E+01  1.284857058844E+00  2.106337325620E+01  0.000000000000E+00  1.392657496206E+01  1.014993025521E+01  2.008981221016E+01 -2.748178817987E+01  2.031342542542E+01 -4.154435434226E+00      230
 O   2.129756757943E+01  3.724831647982E+00  2.050202698088E+01  0.000000000000E+00 -3.230318605912E+00  4.091504140333E+00 -2.834751396355E+00  2.023542245379E+01 -2.944748316402E+00 -7.149294990001E-01      236
 O   2.334337894527E+01  3.806593817398E+00  2.202682811314E+01  0.000000000000E+00 -3.493023183476E+01 -1.492413378599E+00  3.842638399780E-01 -1.623593277457E+00  4.072314173197E-01 -5.853821218559E+00      237
 H   1.331655713395E+01  1.650828378417E+01  4.150098720914E+00  0.000000000000E+00 -4.802026359302E+00 -7.893071515309E+00  8.923278432625E-01 -1.984620293212E+00  2.857492854451E+00 -5.952981170810E+00      243
 H   1.809765944957E+01  1.924344077508E+01  7.313966022511E+00  0.000000000000E+00  1.055117824530E+01 -3.736267166374E+01  8.407676935966E+00 -1.420064708037E+01  2.080393503071E+01  1.121918412911E+01      247
 H   1.401498109292E+01  7.063641192532E+00  9.380596112288E+00  0.000000000000E+00 -8.142862318662E+00  3.502160169010E+00  2.662341160413E+01  4.650908670270E+00  3.977642846941E+01 -4.104055318939E+00      248
 H   6.077553079088E+00  7.484123524669E+00  8.102522682094E+00  0.000000000000E+00 -1.008943850069E+01 -5.277649240356E+00 -9.280187482982E+00 -5.713731546141E+00 -6.960897762910E+00 -1.242450753635E+01      249