     8448
Lattice="     49.70      0.00      0.00      0.00     49.70      0.00      0.00      0.00     49.70" pbc="T T T" config_type=md Properties=species:S:1:pos:R:3:charge:R:1:forces:R:3:id:I:1
 Si  1.078738549130E+01  1.734310268662E+01  1.601404154596E+01  0.000000000000E+00 -2.668582976560E+00  8.801539723598E+00  4.682728761575E+01  8.127047700108E+00  3.154381744130E+01 -4.290336025126E+00        1
 Si  1.235042362252E+01  1.999200745532E+01  1.694131830663E+01  0.000000000000E+00  3.348255748502E+01  9.386537644592E+01  2.948936714977E+01  7.954194814582E+01  2.149810127334E+01  5.419923715355E+01        2
 Si  1.088837259192E+01  2.248740447357E+01  1.811901965523E+01  0.000000000000E+00  9.552779277134E+00 -3.035695218857E+01 -4.747231345566E+01 -2.445983546140E+01 -2.852782581736E+01  1.972904670906E+01        3
 O   1.120278423846E+01  1.907177919060E+01  1.657256903478E+01  0.000000000000E+00 -4.041699372585E+01 -4.148880791960E+01 -2.602408070276E+01 -3.605201835374E+01 -1.759185075684E+01 -6.880646484658E+01        4
 O   9.178437037750E+00  1.735908787958E+01  1.626774363235E+01  0.000000000000E+00  9.755457161571E+00  4.596462154707E+00  1.930650001453E+00  4.307488300496E+00  1.089293627976E+00  1.845040037608E+01        5
 O   1.123447542348E+01  1.729607767037E+01  1.454212211530E+01  0.000000000000E+00  1.072762275683E+01 -2.673635367431E+00 -3.244178517902E+01 -2.247927694704E+00 -2.506280963656E+01  1.651575079623E+01        6
 O   1.194784064131E+01  1.644605412677E+01  1.695006652183E+01  0.000000000000E+00 -2.938323382661E+01  2.655927575797E+00  3.377701351617E+01  2.737322201418E+00  2.380889622532E+01 -4.044565611809E+01        7
 O   1.298632194474E+01  2.137105188012E+01  1.595014251566E+01  0.000000000000E+00 -1.316886538317E+01 -1.737232062619E+01 -9.843267724386E+00 -1.296571602417E+01 -8.014213260578E+00 -2.167145605227E+01        8
 O   1.355521446966E+01  1.895566649234E+01  1.708700974794E+01  0.000000000000E+00  2.456585942011E+01  5.780320323834E+00  1.108492576600E+01  5.210494168562E+00  8.793729760497E+00  3.435299672371E+01        9
 O   1.191606237755E+01  2.106932947157E+01  1.828855957574E+01  0.000000000000E+00 -1.194111534037E+01  9.345107217683E+00 -2.595995457030E+01  8.111722317640E+00 -1.691442328724E+01 -2.111362674958E+01       11
 O   1.892747685817E+01  1.777986250359E+01  2.115951667033E+01  0.000000000000E+00  4.476373114649E+01 -1.914804542073E+01  4.878999612161E+01 -2.278776825200E+01  4.364331836541E+01  4.204960813828E+01       13
 Ca  3.231121654157E+00  1.601419169124E+01  1.711540165731E+01  0.000000000000E+00 -2.451211029373E-01  4.467312693429E+00 -2.858346578422E+00  4.774505797797E+00 -2.634813354316E-01  2.777157899646E+00       14
 Ca  2.120523246214E+01  1.390536873608E+01  1.823337402040E+01  0.000000000000E+00  4.682182182857E+00 -5.448542757043E+00  1.316369923731E+01 -7.144385729055E+00  1.530925116090E+01  3.070349257353E+00       15
 O   6.571328871939E+00  4.064950811554E+00  1.576328682728E+01  0.000000000000E+00  2.245421969281E+00  7.462809062108E-02  1.147483611289E+01  2.081252759000E+00  4.783578620096E+00  1.264969946713E+00       16
 O   9.854573030290E+00  1.605534693246E+01  1.992018777629E+01  0.000000000000E+00 -1.945831671975E+01  1.496071499364E+01  6.436098104970E+00  1.856205619191E+01  3.183955870187E+00 -3.170203566374E+01       18
 Si  2.045732565490E+01  1.964893414692E+01  1.803421431282E+01  0.000000000000E+00  7.015104363490E+00 -1.140995547838E+01 -2.029576815910E+01 -1.047230251057E+01 -2.302274617820E+01  6.737895558649E+00       19
 Si  1.815723051335E+01  2.136182272065E+01  1.827516188369E+01  0.000000000000E+00  2.133395059510E+01 -3.123620742386E+01 -1.267159567840E+01 -2.672275464359E+01 -1.258982465759E+01  2.509920608258E+01       20
 O   1.889598555641E+01  1.979189099878E+01  1.845696917281E+01  0.000000000000E+00 -4.330426133296E+00  2.574780387227E+01  4.065061844488E+00  2.401116812777E+01  4.161753166522E+00 -4.535742353983E+00       22
 O   2.136009773237E+01  2.097756704501E+01  1.775975431748E+01  0.000000000000E+00 -3.712812161031E-01 -7.093480926816E+00  1.554455477693E+01 -6.005390341295E+00  1.869582221161E+01 -3.646320677434E-01       23
 O   2.055952163900E+01  1.891572106898E+01  1.651614941437E+01  0.000000000000E+00  1.984644547124E+01  2.482760775913E+01  4.029616366548E+01  2.167807813701E+01  5.016119847695E+01  1.825965765821E+01       24
 O   2.086435434128E+01  1.868499971705E+01  1.959025829910E+01  0.000000000000E+00  2.741145358066E+01  3.270821168794E+01 -3.377362733236E+01  3.429287263428E+01 -3.597017034149E+01  2.454823159255E+01       25
 O   1.846226427146E+01  2.221976778384E+01  1.959159361790E+01  0.000000000000E+00  2.336471975892E+01  2.534633299464E+01  4.803969408638E+01  2.234834587678E+01  4.527051474425E+01  2.811998787063E+01       26
 O   2.145789621636E+01  1.688617955335E+01  2.160949105871E+01  0.000000000000E+00 -4.332438060656E+00  1.837895029331E+01 -3.666707028918E+01  2.351981161737E+01 -3.640984355835E+01 -3.409389543985E+00       27
 O   1.894894765999E+01  2.202264295322E+01  1.696096537865E+01  0.000000000000E+00 -4.522686509688E+00  2.359547824764E+01 -6.462428532923E+00  1.817230068621E+01 -7.219885029713E+00 -5.256308264679E+00       29
 Ca  4.516529557461E+00  1.072274205564E+01  1.529808152912E+01  0.000000000000E+00  4.931409600592E-01 -9.179581854306E+00 -1.018631852036E+01 -1.309646272209E+01 -3.007358052794E+00  1.170771328852E+00       32
 Si  1.344594817324E+01  1.969149635013E+01  1.255399069212E+01  0.000000000000E+00  2.945212996245E+00 -4.029806917935E+00 -3.219922390502E+01 -2.569137339250E+00 -3.448696963884E+01  4.313243678963E+00       37
 Si  1.239693411600E+01  2.197763878339E+01  1.442794961653E+01  0.000000000000E+00  9.947392592551E+00 -1.175876423568E+02  4.870193238419E+01 -7.719430627520E+01  4.184618487973E+01  1.763502162631E+01       38
 O   1.289218284716E+01  2.092161100494E+01  1.335471726604E+01  0.000000000000E+00 -3.216442387512E+00  3.416073197365E+01  1.598060200605E+01  2.180553481284E+01  1.542712129097E+01 -5.219686786100E+00       40
 O   1.438166403979E+01  1.870801988619E+01  1.350586754206E+01  0.000000000000E+00 -1.465967910546E+01 -2.989135779692E+01 -2.092648506863E+01 -2.157944675672E+01 -2.228347618940E+01 -1.906966867474E+01       41
 O   1.432270629259E+01  2.047337692498E+01  1.135509921949E+01  0.000000000000E+00  5.617024426082E+00 -1.303794567570E+01  5.988532815005E+00 -7.231204080712E+00  7.553610494716E+00  8.029171018573E+00       42
 O   1.212443936415E+01  1.908589587114E+01  1.180340410101E+01  0.000000000000E+00  1.920507571511E+00 -1.196741592291E+01  6.431496900725E+00 -7.401080207957E+00  6.606424174440E+00  3.023200201566E+00       43
 O   1.249147608280E+01  2.338526880677E+01  1.390323942829E+01  0.000000000000E+00  1.841696484860E+01  1.477934393089E+02 -8.131255484243E+00  8.786760544092E+01 -7.305591184591E+00  3.447836514551E+01       44
 O   1.082795838605E+01  2.180890357801E+01  1.457844822882E+01  0.000000000000E+00 -1.549669018097E+01 -1.680821054901E+01 -1.487355360931E+01 -1.123566925001E+01 -1.104714418206E+01 -3.121233106791E+01       46
 O   8.160787603335E+00  2.136938542703E+01  1.462777596419E+01  0.000000000000E+00  1.065283083402E+01  1.223305235603E+01  2.638348322996E+00  8.373771432652E+00  1.471925762351E+00  2.789491150193E+01       47
 O   1.828307285437E+01  1.607134087173E+01  8.944192406938E+00  0.000000000000E+00 -1.554677384290E+01  1.582637510123E+01 -3.848974917375E+00  8.807861468404E+00 -7.867796848200E+00 -1.366605624094E+01       48
 Ca  6.773571349016E+00  2.067052169910E+01  1.287343817017E+01  0.000000000000E+00 -1.113492642250E+00  2.568367901763E+01  1.110185351545E+01  1.599559307834E+01  5.841422928297E+00 -3.397982044843E+00       49
 Si  2.078472731671E+01  2.083218686643E+01  2.293512465997E+01  0.000000000000E+00  4.853551600179E+01  2.860322250948E+00 -3.218290417642E+01  3.149061969049E+00 -2.916543500347E+01  4.864634130633E+01       51
 Si  1.951538124460E+01  2.266109722471E+01  2.087663615939E+01  0.000000000000E+00  1.197555604387E+01 -1.637839312853E+01 -7.148398346949E+00 -1.508866719159E+01 -6.682289137189E+00  1.390591536126E+01       52
 O   1.947205896122E+01  2.143727562040E+01  2.214061158184E+01  0.000000000000E+00  1.912364436783E+01  3.386464399524E+00 -3.008618657214E+01  3.497570970922E+00 -2.645997364100E+01  2.105369730012E+01       54
 O   2.003058362016E+01  1.946286530842E+01  2.334645713942E+01  0.000000000000E+00  4.530929644576E+00 -3.539031654681E+01  2.079108483550E+01 -4.245204882826E+01  1.783814824083E+01  4.402511432844E+00       55
 O   2.225916676274E+01  2.054091337714E+01  2.217069495948E+01  0.000000000000E+00 -3.922673790553E+01 -6.979518575101E+00 -1.181332029148E+00 -7.533295839942E+00 -1.186046115696E+00 -3.619870563771E+01       56
 O   2.127346819288E+01  2.174722887279E+01  2.419211418528E+01  0.000000000000E+00 -1.303358854908E+01 -1.477476130906E-01 -7.441232174915E+00 -1.643578199042E-01 -6.543488294431E+00 -1.332384689890E+01       57
 O   1.663521788052E+01  2.117813263811E+01  1.805908338310E+01  0.000000000000E+00 -3.252195604307E+01  4.096921127513E+00 -5.404473846949E+00  3.493539374789E+00 -4.978358982367E+00 -4.140338309230E+01       58
 O   1.505356184229E+01  1.414402175524E+01  1.217193077597E+01  0.000000000000E+00  4.229519971225E+01 -4.552915221326E+00 -3.459456590382E+01 -3.918105462635E+00 -4.278462035525E+01  3.973971284269E+01       59
 H   3.631986178485E+00  7.312298950330E+00  1.433975430026E+01  0.000000000000E+00 -1.272406451164E+00  5.072915940754E-01  1.724206170470E+01  9.948221300907E-01  4.430144211267E+00 -2.513321504968E+00       70
 H   1.448121387613E+01  1.919703901689E+01  1.736199333227E+01  0.000000000000E+00 -1.154495143464E+01 -1.711062681977E+00 -2.280123908569E+00 -1.547502135587E+00 -1.901795568754E+00 -1.530457909362E+01       73
 H   1.665946960682E+01  1.170464787801E+01  1.738839056452E+01  0.000000000000E+00  1.363245206928E+01 -3.000336961768E-01 -1.962333328402E+01 -4.457291792128E-01 -1.880072357569E+01  9.577919042480E+00       83
 Si  1.787806070763E+00  2.080722105649E+01  2.160534775154E+01  0.000000000000E+00  5.760873266488E+00  2.918374460980E+01 -3.261138365335E+01  3.030317932775E+01 -4.868148203131E+00 -1.190867770936E+01       89
 Si  2.317385657770E+00  2.052998104256E+01  1.837910636727E+01  0.000000000000E+00  2.418938617740E-01  2.631084451058E+01 -1.699377295604E+00  2.355432325388E+01  1.236205178253E+00  2.814272869346E+00       90
 O   1.310062881927E+00  2.021977130145E+01  1.958779812265E+01  0.000000000000E+00  1.265506040077E+01  1.858554020336E+01  4.594898469155E+01  1.800464525915E+01  7.274069468069E+00  6.834672569954E+00       92
 O   1.487754989675E+00  1.977822503397E+01  2.274409514226E+01  0.000000000000E+00  1.974897634257E+01 -2.261967981138E+01  2.944652029816E+00 -2.601164405976E+01 -1.647058966610E+01 -2.599417576524E+01       95
 O   1.517425776507E+00  1.968048867363E+01  1.712117017003E+01  0.000000000000E+00  2.326788665849E+01  3.178404335584E+00 -1.320579663427E-02  2.765073693094E+00  3.668794644698E+00  2.469216200159E+01       96
 O   3.872251073105E+00  2.021640883373E+01  1.861905213379E+01  0.000000000000E+00 -7.233857747342E-01 -2.691685762461E+01 -1.284744388406E+01 -2.479007916352E+01 -2.656067048917E+00 -3.879835210066E+00       97
 O   1.173822129636E+01  1.499774920322E+01  2.087557243144E+01  0.000000000000E+00 -1.145131409166E+01 -4.491710575835E+01  1.509469479701E+01 -6.252073440911E+01  8.487665117220E+00 -1.463117217319E+01       98
 O   4.182821767750E+00  1.187425241008E+01  2.048395486988E+01  0.000000000000E+00 -8.009420493809E+00 -5.736161701564E-01 -4.739747789173E+00 -9.895298951319E-01 -9.740878144157E-01 -2.267287030040E+01      101
 Ca  2.174371523603E+01  2.392450830904E+01  1.798877131423E+01  0.000000000000E+00  2.415436407314E+01 -7.249450943968E+00  1.902999480787E+01 -5.450842019415E+00  2.300228185781E+01  2.657693396434E+01      102
 O   1.584870513797E+01  4.550774999173E+00  1.180909987839E+01  0.000000000000E+00 -6.279808485741E+01  5.709697649789E+00 -2.157995156838E+01  1.481646309343E+01 -2.896192705803E+01 -1.803175414504E+01      105
 Si  5.462168879156E+00  1.566024082538E+01  2.011199313874E+01  0.000000000000E+00 -5.555667556612E-01 -4.249691451222E+00 -1.884036140284E+01 -5.457755488040E+00 -5.116809409029E+00 -1.592830500249E+00      107
 Si  8.535151466341E+00  1.668170446983E+01  2.069073119357E+01  0.000000000000E+00 -1.217303170294E+01  6.370828158688E+00 -1.996755030295E+01  7.901895945359E+00 -8.236831490055E+00 -2.379183523235E+01      108
 Si  7.640911665826E+00  1.960197083787E+01  1.985240741860E+01  0.000000000000E+00  2.498621093104E+01  1.923571184614E+01  7.373392348805E+01  1.948146906833E+01  2.837914738839E+01  6.409954720585E+01      109
 O   7.081149152496E+00  1.601476760403E+01  2.006503799018E+01  0.000000000000E+00  1.033630184305E+01  9.311045656897E+00  9.756708105716E+00  1.166588797623E+01  3.443238202078E+00  2.337663962962E+01      110
 O   4.961640307242E+00  1.571379093973E+01  1.849016567490E+01  0.000000000000E+00  3.438334314619E+00  1.410844981385E+01  2.968003137696E+01  1.660118652939E+01  7.964322364077E+00  1.088939609789E+01      111
 O   4.730761684018E+00  1.682865107809E+01  2.097940640854E+01  0.000000000000E+00  1.186655558653E+00 -2.451086298551E+01 -1.540560615069E+01 -3.055642152249E+01 -3.473894822262E+00  4.221267880373E+00      112
 O   5.298620178089E+00  1.411975239844E+01  2.079969541242E+01  0.000000000000E+00  4.091570437371E+00  3.649179754414E+01 -2.508386920212E+01  5.375577790255E+01 -6.389992394769E+00  1.090320867598E+01      113
 O   8.491971574766E+00  1.627923566488E+01  2.230631392883E+01  0.000000000000E+00  2.212551999713E+00  8.981861670212E+00 -7.836156255889E+00  1.230722560970E+01 -2.983209883657E+00  4.241495052946E+00      114
 O   1.126325735929E+01  1.392381845331E+01  3.460945589882E+01  0.000000000000E+00  2.507952802677E+01  2.720426634704E+01  8.398501303936E+00  6.761973086297E+01  2.733197594760E+00  3.100371269163E+01      115
 O   8.491545047679E+00  1.837169335649E+01  2.057098521926E+01  0.000000000000E+00 -4.967818379564E+00 -3.572550266201E+01  4.669088823495E-01 -4.000223457635E+01  1.927364083622E-01 -1.074801292434E+01      117
 O   6.151708615632E+00  1.980312000863E+01  2.041848386625E+01  0.000000000000E+00 -1.280336793089E+00  6.162554342477E+00 -5.336819356143E+00  6.354050087153E+00 -1.607884200821E+00 -4.121564389538E+00      118
 O   6.147023344019E+00  9.104352213053E+00  2.250369952557E+01  0.000000000000E+00  8.515180221702E-01  3.805443246385E+00  2.925483513669E+00  9.406111426083E+00  7.991137381934E-01  1.261182779978E+00      119
 Ca  2.290176744677E+01  1.886552408430E+01  2.054169705141E+01  0.000000000000E+00  1.955542029681E+01  9.832983316128E+00  9.255337803748E+00  1.070662884789E+01  1.031869925315E+01  1.610894239694E+01      120
 Ca  3.366832021200E+00  1.249040756473E+01  1.828263618016E+01  0.000000000000E+00 -4.838815123177E+00  5.543551263335E+00  5.766027237282E-01  8.114285332029E+00  1.591973907989E+00  6.946122191371E+00      121
 Si  7.197723097687E-01  1.726200874790E+01  1.407427370863E+01  0.000000000000E+00 -1.825406908258E+02  1.864216147636E+01 -4.905729843035E+01  1.519955684015E+01 -1.271128139525E+02 -3.288750506501E+00      125
 Si  2.528699360905E+00  1.919275782792E+01  1.588493560993E+01  0.000000000000E+00  2.763392861511E+00 -3.166909859261E+01 -3.151947402654E+01 -2.621101128241E+01 -7.060890559824E+00  1.001578108968E+01      126
 Si  3.285725476109E+00  2.051573048022E+01  1.305260636330E+01  0.000000000000E+00  6.672061717896E+00 -5.027256248612E+01  1.309406567106E+01 -3.198462612084E+01  2.070662709060E+00  4.874516663458E+01      127
 O   1.393587909876E+00  1.844359736686E+01  1.482121505046E+01  0.000000000000E+00  4.228755716994E+01  5.130660751135E+01  5.043318479913E+01  4.122982346174E+01  3.285179474309E+01  3.864569000505E+01      128
 O   1.786730558822E+00  1.690687294325E+01  1.283956574940E+01  0.000000000000E+00  2.315496003574E+01 -2.004825938932E+01  1.570588632561E+00 -1.522522499898E+01 -2.096535597422E+00 -2.354847062309E+00      129
 O   5.344555503139E-01  1.610117015941E+01  1.514264689181E+01  0.000000000000E+00  4.877216365136E+00 -4.419477198956E+01  2.628955457103E+00 -4.156380064781E+01  5.919561204399E+00 -7.268929134592E+00      131
 O   3.889994765112E+00  1.827066105908E+01  1.629305549614E+01  0.000000000000E+00 -6.483636398837E+00  3.931383679362E+00 -4.811483367863E+00  3.505853031664E+00 -1.051617525973E+00 -2.869209097793E+01      132
 O   2.210551617724E+00  4.722395018442E+00  9.890598915764E+00  0.000000000000E+00 -6.392559274215E+00 -1.832900723727E+01 -2.061423364379E+01 -3.838833015875E+01 -5.884083510870E+00 -1.918148931495E+01      133
 O   2.966503560957E+00  2.031126445820E+01  1.480464836114E+01  0.000000000000E+00  7.720700910622E+00  2.848783395400E+01 -1.555537730034E+01  2.076445635019E+01 -2.092994788610E+00  2.434446721008E+01      134
 O   1.778958430591E+00  2.089090562964E+01  1.266645735662E+01  0.000000000000E+00  3.799105550775E+01 -5.687369057260E+00 -2.044432273438E+01 -3.448333878494E+00 -4.946817980185E+00 -2.222623781505E+01      135
 O   8.130221191211E+00  1.501518787996E+01  1.203645725845E+01  0.000000000000E+00  5.986894327925E+00  1.039974483691E+01  4.343078391829E+00  8.336631231585E+00  2.933603070917E+00  1.105681395833E+01      136
 Si  8.827999568578E+00  1.447654614091E+01  2.570635406094E+01  0.000000000000E+00 -1.236141865402E+01  1.424344974094E+01  1.654325465941E+01  2.529243913058E+01  5.681235256074E+00 -2.027080383521E+01      139
 Si  8.912863669752E+00  1.693042796571E+01  2.375742216428E+01  0.000000000000E+00  7.275341422150E+00 -2.105908021837E+01 -5.219471161246E+00 -2.955090445160E+01 -1.958143209591E+00  1.381987298781E+01      140
 O   8.523187523541E+00  1.578120710045E+01  2.483521326300E+01  0.000000000000E+00 -8.745080166525E+00  4.140752194216E-01 -1.310256978130E+01  6.516387698228E-01 -4.496666008207E+00 -1.619205500722E+01      142
 O   7.896050210970E+00  1.318553958005E+01  2.552427431668E+01  0.000000000000E+00 -4.783965418310E+00 -2.155881449273E+01 -1.277739188824E+01 -4.173307369897E+01 -3.952744225479E+00 -7.988698613529E+00      143
 O   8.073555204778E+00  1.818892627344E+01  2.422910440974E+01  0.000000000000E+00  2.066006620183E+00 -1.652457150453E+01 -1.092332658915E+01 -2.201205075498E+01 -3.639840695138E+00  4.654509833871E+00      148
 O   1.293677037763E+01  1.603116246490E+01  1.033109586365E+00  0.000000000000E+00  1.162050467402E-01  1.313772921263E+01  7.924037490923E+01 -1.479861475038E+01  1.152233854423E+01  1.440005448929E-01      150
 Ca  4.434356184611E+00  1.200770672338E+01  7.502812972056E+00  0.000000000000E+00  5.474795225402E+00 -1.530491469443E+01 -8.105369479662E+00 -9.563017747760E+00 -4.658955804538E+00  1.618042099989E+01      151
 Ca  1.265846885323E+01  2.171211517860E+01  1.094687164062E+00  0.000000000000E+00 -6.825568016298E+00 -7.582989509215E+00 -3.776760788573E+01  1.778450925869E+00  2.468074447181E+00 -1.170738109383E+01      152
 H   7.591927532631E+00  1.829629737140E+01  1.547298882315E+01  0.000000000000E+00  1.703290025886E+01 -5.445507358947E+01  7.754943801803E-01 -4.605209064489E+01  3.805016085504E-01  4.104873326228E+01      155
 H   1.212392525877E+01  1.386579384831E+01  3.409158289571E+01  0.000000000000E+00 -2.354987059419E+01 -1.502915343826E+01  2.772706278586E+01 -3.695191461073E+01  9.860522988600E+00 -2.693332760175E+01      156
 H   1.448946069289E+01  1.345868929879E+01  1.237637056007E+01  0.000000000000E+00 -2.865080759703E+01 -3.221955419500E+01  8.664353323784E+00 -2.962852720238E+01  1.014366904295E+01 -2.661260662358E+01      159
 H   1.631972841996E+01  4.016077395779E+00  1.237063045912E+01  0.000000000000E+00  5.618185368594E+01 -1.085258112413E+01  3.583705964671E+01 -3.342895501845E+01  4.727738677000E+01  1.382563893435E+01      160
 H   1.641258793936E+01  1.721315099343E+01  1.627984181186E+01  0.000000000000E+00  2.080640724161E+01 -3.325925367861E+01 -2.665714718368E+01 -3.145591349748E+01 -2.687451004874E+01  2.182128929355E+01      164
 H   1.944943504069E+01  6.338298244062E+00  6.365701918603E+00  0.000000000000E+00 -2.048677898757E+01  2.560050734103E+00 -9.067500659032E+00  2.571119130449E+00 -2.770437059484E+01 -6.676354095209E+00      168
 H   5.280616757976E+00  1.964955758413E+01  3.419158205207E+01  0.000000000000E+00 -7.229640021007E-01  2.375817248153E+00 -6.524225009755E+00  4.134085463917E+00 -1.007614443428E+00 -2.690201436995E+00      169
 Si  1.249207492662E+01  4.518696583151E-01  1.967869161245E+01  0.000000000000E+00 -1.328889032284E+01 -9.167051483094E+01  3.750006332362E+00  3.223581776450E+01  2.380511926389E+00 -6.856656761508E+01      177
 Si  1.127560263861E+01  3.442859858518E+00  1.898613768449E+01  0.000000000000E+00  1.680978023886E+01  2.573833047779E+00  6.961319230909E+00  7.668199339497E+00  4.134230499779E+00  4.853891775591E+00      178
 Si  8.556419998324E+00  3.835720996582E+00  1.979146145740E+01  0.000000000000E+00 -4.912856860169E+00 -4.515560421555E+00 -3.729274290977E+01 -2.364307419820E+01 -1.612272908255E+01 -2.213320380047E+00      179
 O   1.179227590765E+01  1.882353433479E+00  1.907511265022E+01  0.000000000000E+00  1.584540109901E+01  1.210149791702E+00 -1.031527101341E+01  9.936232288530E-01 -6.376922856650E+00  5.074059762518E+00      180
 O   1.183992284713E+01  6.421283365520E-01  2.121780391038E+01  0.000000000000E+00 -9.838358917976E+00 -7.409319590513E-01 -4.719535035878E+01 -6.125607444554E+00 -2.633586912912E+01  1.278847725637E+00      182
 O   1.180941606965E+01  4.568689427677E+00  1.780169681590E+01  0.000000000000E+00  2.639673537529E-01 -2.037655544564E+00 -2.551020447141E+01 -7.939634942098E+00 -1.692314062755E+01  1.021206172457E-01      184
 O   1.187017414871E+01  4.311696305857E+00  2.023489482664E+01  0.000000000000E+00 -3.711658101638E+00 -1.026468625753E+00  5.665972596279E+00 -4.817242034588E+00  3.323767284972E+00 -1.348214636529E+00      185
 O   9.734887715789E+00  3.299923272791E+00  1.856711838824E+01  0.000000000000E+00 -2.510687506347E+01  2.421368610391E-01  1.650096664410E+01 -8.356977417664E-01  8.651587937525E+00 -8.438644653771E+00      187
 O   6.975619188964E+00  3.856661068235E+00  1.950408676826E+01  0.000000000000E+00 -8.164594750809E-01  1.050674907274E+00 -2.866625028302E+01  5.885051429663E+00 -1.025245877573E+01 -4.820098350475E-01      188
 Ca  1.157603290133E+01  4.868253341595E+00  2.245437708802E+01  0.000000000000E+00 -1.009814642531E+01 -1.747454695993E+00 -1.285293973223E+01 -8.059976327198E+00 -6.626149219629E+00 -4.246734222160E+00      190
 O   1.549908061410E+01  1.941769077410E+01  7.825776496364E+00  0.000000000000E+00  4.335315566049E+01  1.595274065276E+01  1.740055630402E+01  6.429321813049E+00  3.446209139906E+01  5.431407137341E+01      193
 O   4.272561865875E+00  1.229110770684E+01  1.288335011578E+01  0.000000000000E+00  1.305823458423E+01 -8.602681465852E+00 -1.561452758324E+00 -9.017198441555E+00 -5.178314220002E-01  3.756532328245E+01      194
 Si  1.819202804635E+01  1.624055573555E+00  2.015788078315E+01  0.000000000000E+00 -1.899972567904E+01  2.831027474023E+00 -4.692964747436E+00  1.783364837363E+01 -4.235293740663E+00 -3.502631227503E+00      196
 Si  1.693768005913E+01  4.335156309621E+00  1.908076704542E+01  0.000000000000E+00  2.778478909405E+01 -8.966838287992E+00 -9.838235987846E+00 -3.978770407831E+01 -8.733238716855E+00  7.115503995992E+00      197
 O   1.977546721785E+01  1.647029973542E+00  2.054037720058E+01  0.000000000000E+00  4.666592881129E+00  1.282911277867E+01  4.004764010932E+00 -8.686873040622E+00  3.855629263282E+00 -4.946250066269E+00      202
 O   1.753998590918E+01  3.248987716710E+00  2.021998568140E+01  0.000000000000E+00  2.404265925766E+01 -5.723424258710E+00 -2.764386912530E+01 -3.599668420630E+01 -2.397989210146E+01  4.364615247949E+00      205
 O   1.573535240268E+01  4.962519774664E+00  1.987038490505E+01  0.000000000000E+00 -1.944373807963E+01  7.120580237423E+00  8.501354842048E+00  2.851145718094E+01  6.732220587526E+00 -6.132047903617E+00      206
 Ca  1.453257163405E+01  5.516701487657E+00  1.803149107976E+01  0.000000000000E+00 -2.768035956147E+01 -2.494242183753E+00  1.224284542397E+00 -8.152499421572E+00  9.867183326182E-01 -1.050772599764E+01      209
 O   2.340109107715E+01  1.936901696033E+01  1.488256315199E+01  0.000000000000E+00  1.268453640545E+01 -1.557714979329E+01  8.022192932176E+00 -1.196900782324E+01  1.261396074904E+01  1.049895494023E+01      210
 O   1.495341268471E+01  1.837590624120E+01  4.790759999916E+00  0.000000000000E+00  9.167422925507E+00 -1.691034335490E+01  6.872457055572E+00 -4.408674895600E+00  2.145101956928E+01  1.126563599257E+01      212
 Si  1.315896350126E+01  3.456900234575E+00  1.489802361493E+01  0.000000000000E+00  4.732043059907E+01 -5.124134412983E+00 -3.645480264384E+01 -1.877330507586E+01 -3.219939972139E+01  1.254624619109E+01      213
 Si  1.145636247417E+01  4.988792616763E+00  1.618923549284E+01  0.000000000000E+00 -7.689133299189E+00  2.483031986898E+00  1.402346003187E+00  8.057739148558E+00  9.923744783267E-01 -3.348313351537E+00      214
 Si  9.301876437599E+00  6.205100505592E+00  1.464792330528E+01  0.000000000000E+00  7.593714748199E+00 -8.944055856527E+00 -1.465851730975E+01 -2.111357327838E+01 -9.308603952384E+00  5.065619129589E+00      215
 O   1.162160290022E+01  3.720510065609E+00  1.501998665681E+01  0.000000000000E+00 -2.647392298095E+01  6.218915130354E+00  2.415226351447E+01  2.497221214879E+01  1.868763415841E+01 -8.490739865508E+00      216
 O   1.397825093489E+01  4.020985879435E+00  1.617216113127E+01  0.000000000000E+00  1.996200681521E+01 -9.951333500678E+00  2.485552593763E+01 -4.186217121972E+01  2.148363325437E+01  5.765344131440E+00      217
 O   1.381922553599E+01  4.582844467298E+00  1.386928535235E+01  0.000000000000E+00 -1.495611875657E+00 -2.286848462425E+00 -1.884245258632E+01 -6.920800849621E+00 -1.877444261375E+01 -4.959870284866E-01      218
 O   1.327121518409E+01  1.893371005539E+00  1.437723269791E+01  0.000000000000E+00 -1.406466149401E+00  8.933390278926E+00  2.204907712096E+01  2.089429451422E+01  2.035287688746E+01 -1.917529613674E+00      219
 O   1.282108193040E+01  6.090975385655E+00  1.581603882833E+01  0.000000000000E+00 -3.605603134058E+01 -7.081683357424E-01  1.434210894794E+01 -1.838854565309E+00  1.162625837430E+01 -1.712931877294E+01      220
 O   9.709453127021E+00  5.236687819653E+00  1.605265302359E+01  0.000000000000E+00  1.814700568306E+01  2.385540909100E+00 -1.128457221675E+01  7.312687295136E+00 -6.825477684965E+00  9.787389915832E+00      222
 O   1.081356647759E+01  6.395912858386E+00  1.392387790725E+01  0.000000000000E+00 -3.361044967689E+01  2.707561642815E+00  2.330047850612E+01  5.894351373390E+00  1.809562500934E+01 -1.987961212520E+01      223
 O   2.089890890049E+01  2.024169094168E+01  1.299615709655E+01  0.000000000000E+00  4.894486409587E+01  1.695178405420E+01 -1.693523585469E+01  1.088387572312E+01 -2.723327739933E+01  4.740567160366E+01      224
 Ca  1.588128017028E+01  8.122133974445E+00  6.716488784064E+00  0.000000000000E+00 -6.413967202225E+00 -4.579293806858E+00 -1.397087103795E+01 -3.786785048051E+00 -3.303442085735E+01 -3.280283476245E+00      225
 Ca  1.638884191696E+01  4.462115033645E+00  1.574632497027E+01  0.000000000000E+00  1.266419354904E+00  3.746934999194E-01 -1.301270731891E+01  2.717277651666E+00 -1.354368105346E+01  4.730806516097E-01      226
 Si  2.121627220867E+01  2.468141494508E+00  2.026932889966E+01  0.000000000000E+00 -6.258582593186E-01  2.011585447690E+00  6.661517224050E+01 -2.143760550831E+01  6.972730249129E+01  1.212986583508E+00      228
 Si  2.258070996439E+01  4.499866624190E+00  2.169874491409E+01  0.000000000000E+00  3.612488115494E+01 -8.142719653046E-01 -1.306813117472E+01 -1.269916797906E+00 -1.359929714836E+01  7.123374018574E+00      229
 O   2.240718849735E+01  1.339368342812E+00  2.044374419512E+01  0.000000000000E+00  1.370969805449E+01  6.517385295874E+01  1.468197543937E+01 -3.121246480128E+01  1.609205182982E+01 -1.972304020046E+01      230
 O   2.122454710432E+01  3.755157992478E+00  2.134425350604E+01  0.000000000000E+00 -1.266113970881E+01 -7.834872323156E-01  2.609276844670E+00 -9.161317510597E+00  2.594643063166E+00 -2.095825932830E+00      236
 O   2.320972911249E+01  4.316982564538E+00  2.318080545838E+01  0.000000000000E+00  1.506781705536E+01 -7.650142304931E-01  6.919492349218E+01 -2.697151471306E+00  6.928126087322E+01  2.713262829553E+00      237
 H   1.539056104407E+01  1.840774358405E+01  5.706753148626E+00  0.000000000000E+00 -9.479498493300E+00 -5.035391696311E+00 -9.976327815113E+00 -1.561067888972E+00 -2.690519078631E+01 -1.133786981972E+01      243
 H   1.940355057830E+01  1.702219518804E+01  5.899994256895E+00  0.000000000000E+00 -8.945045402761E+00  7.572359509616E-01  8.514188727977E+00  2.624624916138E-01  2.800095803880E+01 -7.847239514089E+00      247
 H   1.340279961552E+01  7.390004502333E+00  5.326021959631E+00  0.000000000000E+00 -1.316072150457E+01  9.324706294065E+00  3.687542573305E+00  6.720373509057E+00  9.279607661838E+00 -7.256528036135E+00      248
 H   6.263365125177E+00  9.723750703818E+00  1.019048348067E+01  0.000000000000E+00  4.010379152960E+01  1.969559440658E+01 -9.649025122378E+00  2.064096823907E+01 -5.930569198027E+00  6.226034461000E+01      249